65
Lattice="11.033086113260774 5.600493888326504e-08 2.5686178914223706e-08 5.516543105132088 9.554933067924482 1.9872236184885125e-07 0.0 0.0 37.15231387033118" Properties=species:S:1:pos:R:3:tags:I:1:initial_magmoms:R:1:forces:R:3 energy=-376.3846130371094 free_energy=-376.3846130371094 stress="0.00807182401635226 4.748118901408113e-07 7.976149005141992e-07 4.748118901408113e-07 0.008173521693767151 -0.00012661677336665316 7.976149005141992e-07 -0.00012661677336665316 0.001410136098466667" pbc="T T T"
Pt      -0.00000001       0.00000000       0.00000000        0       0.00000000      -0.00387088      -0.00031319       0.14637032
Pt       2.75827155       0.00000002       0.00000007        0       0.00000000       0.00385973      -0.00031733       0.14636734
Pt       5.51654309       0.00000006       0.00000007        0       0.00000000       0.00381152      -0.00399619       0.12753510
Pt       8.27481455       0.00000002       0.00000007        0       0.00000000      -0.00383117      -0.00399318       0.12756503
Pt       1.37913578       2.38873328       0.00000009        0       0.00000000      -0.00000786       0.00701097       0.14488223
Pt       4.13740732       2.38873326       0.00000010        0       0.00000000      -0.00054021       0.00182795       0.12945804
Pt       6.89567885       2.38873330       0.00000010        0       0.00000000      -0.00000509       0.00069398       0.13432530
Pt       9.65395039       2.38873333       0.00000011        0       0.00000000       0.00051885       0.00183144       0.12946510
Pt       2.75827157       4.77746655       0.00000018        0       0.00000000      -0.00348191       0.00846208       0.12814394
Pt       5.51654311       4.77746655       0.00000018        0       0.00000000      -0.00144761       0.00310044       0.13488439
Pt       8.27481459       4.77746656       0.00000016        0       0.00000000       0.00143261       0.00310242       0.13485748
Pt      11.03308612       4.77746666       0.00000025        0       0.00000000       0.00345768       0.00845908       0.12813598
Pt       4.13740734       7.16619989       0.00000032        0       0.00000000      -0.00780185       0.00197367       0.12685025
Pt       6.89567883       7.16619981       0.00000025        0       0.00000000      -0.00000470       0.00283142       0.12995976
Pt       9.65395036       7.16619988       0.00000022        0       0.00000000       0.00778190       0.00197132       0.12682375
Pt      12.41222192       7.16619985       0.00000023        0       0.00000000      -0.00001338       0.00198170       0.10301870
Pt       1.37913581       0.79624445       2.38855938        1       0.00000000       0.00001363      -0.01287407       0.06584885
Pt       4.13740731       0.79624445       2.38855951        1       0.00000000      -0.05231433      -0.03069543      -0.09415340
Pt       6.89567888       0.79624443       2.38855941        1       0.00000000       0.00010466      -0.00572029      -0.17701086
Pt       9.65395033       0.79624446       2.38855954        1       0.00000000       0.05234319      -0.03072369      -0.09401661
Pt       2.75827161       3.18497767       2.38855947        1       0.00000000      -0.04321837      -0.04203120      -0.09695135
Pt       5.51654314       3.18497767       2.38855952        1       0.00000000      -0.00725443      -0.01389791      -0.17404130
Pt       8.27481457       3.18497770       2.38855940        1       0.00000000       0.00734676      -0.01396330      -0.17394398
Pt      11.03308614       3.18497759       2.38855939        1       0.00000000       0.04326134      -0.04205129      -0.09691930
Pt       4.13740736       5.57371086       2.38855937        1       0.00000000       0.00566940      -0.01419927      -0.17723639
Pt       6.89567888       5.57371105       2.38855956        1       0.00000000       0.00000368      -0.00154387      -0.17766930
Pt       9.65395045       5.57371094       2.38855956        1       0.00000000      -0.00556157      -0.01424075      -0.17726651
Pt      12.41222194       5.57371108       2.38855958        1       0.00000000       0.00007357      -0.04540282      -0.14683956
Pt       5.51654310       7.96244423       2.38855960        1       0.00000000       0.01085961       0.04766576      -0.08810736
Pt       8.27481475       7.96244428       2.38855962        1       0.00000000      -0.01085489       0.04767701      -0.08823962
Pt      11.03308616       7.96244430       2.38855961        1       0.00000000      -0.03288459       0.00720986      -0.14058441
Pt      13.79135772       7.96244428       2.38855965        1       0.00000000       0.03303650       0.00722000      -0.14052741
Pt       0.00888844       1.57216819       4.77288276        2       0.00000000      -0.00104518       0.00102519      -0.00805490
Pt       2.74948998       1.57216261       4.77286669        2       0.00000000       0.00106916       0.00097625      -0.00790493
Pt       5.51440543       1.57784702       4.72307197        2       0.00000000      -0.00039068       0.00100654       0.00077075
Pt       8.27708635       1.57784025       4.72312565        2       0.00000000       0.00038685       0.00108669       0.00053485
Pt       1.37918655       3.94721522       4.75579522        2       0.00000000       0.00011095       0.00024509       0.00095882
Pt       4.13680565       3.96289234       4.72393085        2       0.00000000       0.00250402       0.00385690      -0.00422378
Pt       6.89574312       3.96688664       4.72688657        2       0.00000000      -0.00003248      -0.00524591       0.00230509
Pt       9.65465210       3.96290199       4.72394053        2       0.00000000      -0.00236098       0.00379724      -0.00421229
Pt       2.75772168       6.35385888       4.71798718        2       0.00000000      -0.00133243       0.00421103      -0.00063241
Pt       5.51821703       6.35676764       4.72283291        2       0.00000000       0.00103299       0.00092553       0.00172663
Pt       8.27325559       6.35677063       4.72279885        2       0.00000000      -0.00094641       0.00086201       0.00191021
Pt      11.03380457       6.35384295       4.71797054        2       0.00000000       0.00126181       0.00423534      -0.00064079
Pt       4.15275301       8.75208207       4.75631442        2       0.00000000       0.00044994      -0.00097582      -0.00124467
Pt       6.89573957       8.75434800       4.77659514        2       0.00000000      -0.00000408      -0.00061896      -0.01144965
Pt       9.63875364       8.75205992       4.75625925        2       0.00000000      -0.00041744      -0.00090896      -0.00104991
Pt      12.41229921       8.74151676       4.71770591        2       0.00000000       0.00005606       0.00546391      -0.00451404
Pt      -0.09137221      -0.07829610       7.20371081        3       0.00000000      -0.01826963      -0.01208924      -0.01978303
Pt       2.85003036      -0.07845685       7.20362093        3       0.00000000       0.01821250      -0.01177968      -0.01968382
Pt       5.54312364      -0.03268479       7.07722182        3       0.00000000      -0.00748797       0.00755589      -0.00153506
Pt       8.24855948      -0.03268239       7.07727932        3       0.00000000       0.00746129       0.00766826      -0.00161397
Pt       1.37926688       2.45712711       7.20540065        3       0.00000000       0.00001383       0.01559716      -0.01110299
Pt       4.14953319       2.36703569       7.08012303        3       0.00000000      -0.00328229       0.00311690      -0.00455257
Pt       6.89580393       2.36573054       7.08425933        3       0.00000000      -0.00001663       0.00879005       0.00142774
Pt       9.64207031       2.36708434       7.08019104        3       0.00000000       0.00325704       0.00301873      -0.00462955
Pt       2.76668587       4.77052487       7.07762874        3       0.00000000       0.00134020       0.00582015      -0.00064427
Pt       5.52084588       4.74738058       7.08485261        3       0.00000000      -0.00012898       0.00595627       0.00052333
Pt       8.27074135       4.74739608       7.08487492        3       0.00000000       0.00018923       0.00583909       0.00041142
Pt      11.02495863       4.77049876       7.07762702        3       0.00000000      -0.00139519       0.00589078      -0.00061980
Pt       4.12187943       7.11885148       7.07749336        3       0.00000000      -0.00408080      -0.00020984      -0.00303560
Pt       6.89582499       7.12592188       7.07836461        3       0.00000000      -0.00005048       0.00769022      -0.00275439
Pt       9.66983628       7.11875006       7.07742594        3       0.00000000       0.00384020       0.00008552      -0.00292674
Pt      12.41239583       7.13600005       7.08275012        3       0.00000000      -0.00010116       0.00961904       0.00080734
O        1.37943485       0.75790360       8.31308955        0       0.00000000      -0.00032513       0.04043338      -0.01555090
