67
Lattice="11.033086113260774 5.600493888326504e-08 2.5686178914223706e-08 5.516543105132088 9.554933067924482 1.9872236184885125e-07 0.0 0.0 37.15231387033118" Properties=species:S:1:pos:R:3:tags:I:1:initial_magmoms:R:1:forces:R:3 energy=-384.49932861328125 free_energy=-384.49932861328125 stress="0.00789004021782245 -4.00310395663941e-05 -5.2761774822812503e-05 -4.00310395663941e-05 0.007899614600059869 1.1674909464196846e-05 -5.2761774822812503e-05 1.1674909464196846e-05 0.0014078116061673608" pbc="T T T"
Pt      -0.00000001       0.00000000       0.00000000        0       0.00000000      -0.00423745      -0.00257932       0.14490563
Pt       2.75827155       0.00000002       0.00000007        0       0.00000000       0.00383953      -0.00228695       0.14883974
Pt       5.51654309       0.00000006       0.00000007        0       0.00000000       0.00452772      -0.00676321       0.12750953
Pt       8.27481455       0.00000002       0.00000007        0       0.00000000      -0.00467599      -0.00670560       0.12507817
Pt       1.37913578       2.38873328       0.00000009        0       0.00000000       0.00004227       0.00508868       0.14608938
Pt       4.13740732       2.38873326       0.00000010        0       0.00000000      -0.00097053       0.00010037       0.13007098
Pt       6.89567885       2.38873330       0.00000010        0       0.00000000      -0.00017105      -0.00163475       0.13398761
Pt       9.65395039       2.38873333       0.00000011        0       0.00000000       0.00060135      -0.00105411       0.13013089
Pt       2.75827157       4.77746655       0.00000018        0       0.00000000      -0.00330073       0.00743038       0.12505838
Pt       5.51654311       4.77746655       0.00000018        0       0.00000000      -0.00180251       0.00100088       0.13405475
Pt       8.27481459       4.77746656       0.00000016        0       0.00000000       0.00099657       0.00072667       0.13385952
Pt      11.03308612       4.77746666       0.00000025        0       0.00000000       0.00350037       0.00726573       0.12682009
Pt       4.13740734       7.16619989       0.00000032        0       0.00000000      -0.00826408      -0.00115896       0.12348384
Pt       6.89567883       7.16619981       0.00000025        0       0.00000000      -0.00121399       0.00110972       0.13068247
Pt       9.65395036       7.16619988       0.00000022        0       0.00000000       0.00817520      -0.00069131       0.12773341
Pt      12.41222192       7.16619985       0.00000023        0       0.00000000       0.00150629      -0.00002288       0.10341913
Pt       1.37913581       0.79624445       2.38855938        1       0.00000000       0.00697634      -0.00276385       0.08524776
Pt       4.13740731       0.79624445       2.38855951        1       0.00000000      -0.05896519      -0.02386866      -0.07923283
Pt       6.89567888       0.79624443       2.38855941        1       0.00000000      -0.00345296       0.00621779      -0.17488977
Pt       9.65395033       0.79624446       2.38855954        1       0.00000000       0.05547069      -0.01306751      -0.10865778
Pt       2.75827161       3.18497767       2.38855947        1       0.00000000      -0.04185619      -0.04079493      -0.09167822
Pt       5.51654314       3.18497767       2.38855952        1       0.00000000      -0.00813304      -0.00579603      -0.17786376
Pt       8.27481457       3.18497770       2.38855940        1       0.00000000       0.00603132      -0.00266523      -0.18425521
Pt      11.03308614       3.18497759       2.38855939        1       0.00000000       0.04718585      -0.03888409      -0.09712417
Pt       4.13740736       5.57371086       2.38855937        1       0.00000000       0.00730096      -0.00576931      -0.17376885
Pt       6.89567888       5.57371105       2.38855956        1       0.00000000       0.00171888       0.00825222      -0.18044677
Pt       9.65395045       5.57371094       2.38855956        1       0.00000000      -0.00442976      -0.00032633      -0.17607395
Pt      12.41222194       5.57371108       2.38855958        1       0.00000000      -0.00127028      -0.03632593      -0.14266565
Pt       5.51654310       7.96244423       2.38855960        1       0.00000000       0.02065847       0.05255426      -0.10326991
Pt       8.27481475       7.96244428       2.38855962        1       0.00000000      -0.00865805       0.06486332      -0.07949474
Pt      11.03308616       7.96244430       2.38855961        1       0.00000000      -0.03596529       0.02056121      -0.13942726
Pt      13.79135772       7.96244428       2.38855965        1       0.00000000       0.02630036       0.01630685      -0.14740264
Pt       0.01263267       1.58636817       4.77527327        2       0.00000000      -0.00217182       0.00164665       0.00444786
Pt       2.74857753       1.58520727       4.78079272        2       0.00000000      -0.00037601       0.00301083       0.00296158
Pt       5.51361935       1.59200649       4.72355070        2       0.00000000       0.00084048       0.00246406      -0.00837469
Pt       8.27735890       1.59211892       4.72105652        2       0.00000000       0.00016945       0.00099851      -0.00754394
Pt       1.38041791       3.96434446       4.75504982        2       0.00000000      -0.00100834       0.00101579      -0.00877046
Pt       4.13681594       3.97788501       4.72318159        2       0.00000000       0.00146924       0.00216860      -0.00907730
Pt       6.89654481       3.98076229       4.72584049        2       0.00000000       0.00201715       0.00298507       0.00588189
Pt       9.65647294       3.98036884       4.72102229        2       0.00000000      -0.00014097      -0.00092808      -0.00769404
Pt       2.75810951       6.37011946       4.71746961        2       0.00000000      -0.00411401      -0.00101770       0.00102018
Pt       5.51940772       6.37177489       4.72228077        2       0.00000000      -0.00091435       0.00161307      -0.00809900
Pt       8.27509134       6.37259344       4.72254531        2       0.00000000      -0.00217515       0.00284910      -0.00768299
Pt      11.03466161       6.37249945       4.71875801        2       0.00000000      -0.00191265      -0.00049451       0.00069140
Pt       4.15176243       8.76589571       4.74906785        2       0.00000000      -0.00673462      -0.00210024      -0.00139511
Pt       6.89846982       8.77182603       4.78039929        2       0.00000000      -0.00245196      -0.00040673      -0.00010294
Pt       9.63735334       8.76896904       4.76121650        2       0.00000000       0.00040418       0.00035585      -0.00914472
Pt      12.41080720       8.75792686       4.71849364        2       0.00000000      -0.00362247      -0.00048603       0.00067663
Pt      -0.11132286      -0.06507891       7.18353853        3       0.00000000       0.01557574       0.00883068       0.00236140
Pt       2.85623014      -0.05180089       7.23155521        3       0.00000000      -0.01048058       0.00104679      -0.00476220
Pt       5.54221211      -0.00291416       7.08110920        3       0.00000000       0.00012661       0.00511567       0.00078529
Pt       8.24529934      -0.00276961       7.07805566        3       0.00000000      -0.01075334       0.00095087      -0.00179583
Pt       1.38241682       2.50873988       7.20161376        3       0.00000000      -0.00351437      -0.00924033       0.01340406
Pt       4.15321455       2.39721481       7.07275623        3       0.00000000       0.00277872       0.00400314      -0.01135781
Pt       6.89689006       2.39367497       7.08430888        3       0.00000000      -0.00095840       0.00384077      -0.00170234
Pt       9.64173515       2.39903933       7.06217611        3       0.00000000      -0.00556417      -0.00289913      -0.00493562
Pt       2.77130494       4.80456294       7.07791211        3       0.00000000       0.00048706      -0.00172390       0.00061285
Pt       5.52370462       4.77475218       7.08423518        3       0.00000000      -0.00157368       0.00175677      -0.00133434
Pt       8.27281070       4.77630716       7.08437054        3       0.00000000      -0.00024672       0.00182886      -0.00146469
Pt      11.02439450       4.80615300       7.07796264        3       0.00000000      -0.00837183      -0.00106231       0.00068820
Pt       4.12192285       7.14168876       7.07810397        3       0.00000000      -0.00883950      -0.00681487      -0.00158811
Pt       6.89922673       7.15106685       7.06881024        3       0.00000000      -0.00758289      -0.00230017      -0.00864932
Pt       9.67134291       7.14875639       7.08019810        3       0.00000000      -0.00311389      -0.00804740       0.00052240
Pt      12.41513402       7.16787693       7.08647443        3       0.00000000      -0.00853878      -0.00256837      -0.00535804
O        1.35918544       0.80103101       8.28709110        0       0.00000000       0.01212161       0.00287065      -0.03355163
O        1.40552272       0.82519770      10.49041124        0       0.00000000       0.02778375       0.00039800       0.00100130
H        2.38364947       0.80827022      10.45152648        0       0.00000000       0.02392137      -0.00797900      -0.01138946
