67
Lattice="11.033086113260774 5.600493888326504e-08 2.5686178914223706e-08 5.516543105132088 9.554933067924482 1.9872236184885125e-07 0.0 0.0 37.15231387033118" Properties=species:S:1:pos:R:3:tags:I:1:initial_magmoms:R:1:forces:R:3 energy=-385.284912109375 free_energy=-385.284912109375 stress="0.009459604233633132 1.3533369650942527e-06 -1.5703426656250516e-05 1.3533369650942527e-06 0.009419157156169011 1.2511651531688702e-05 -1.5703426656250516e-05 1.2511651531688702e-05 0.0013809546194993414" pbc="T T T"
Pt      -0.00000001       0.00000000       0.00000000        0       0.00000000      -0.00062537      -0.00071540       0.13457334
Pt       2.75827155       0.00000002       0.00000007        0       0.00000000       0.00155537      -0.00038594       0.13557333
Pt       5.51654309       0.00000006       0.00000007        0       0.00000000       0.00071958      -0.00139027       0.13473943
Pt       8.27481455       0.00000002       0.00000007        0       0.00000000       0.00075202      -0.00123659       0.13528693
Pt       1.37913578       2.38873328       0.00000009        0       0.00000000       0.00076234       0.00055990       0.13436288
Pt       4.13740732       2.38873326       0.00000010        0       0.00000000       0.00002682       0.00117136       0.13033283
Pt       6.89567885       2.38873330       0.00000010        0       0.00000000       0.00047123      -0.00000613       0.13058576
Pt       9.65395039       2.38873333       0.00000011        0       0.00000000       0.00092486       0.00100582       0.13001576
Pt       2.75827157       4.77746655       0.00000018        0       0.00000000      -0.00040326       0.00195671       0.12989706
Pt       5.51654311       4.77746655       0.00000018        0       0.00000000       0.00011871       0.00004166       0.13258126
Pt       8.27481459       4.77746656       0.00000016        0       0.00000000       0.00085647      -0.00000526       0.13285100
Pt      11.03308612       4.77746666       0.00000025        0       0.00000000       0.00157917       0.00143746       0.13079649
Pt       4.13740734       7.16619989       0.00000032        0       0.00000000      -0.00053383       0.00016492       0.13318580
Pt       6.89567883       7.16619981       0.00000025        0       0.00000000       0.00029119      -0.00090690       0.12853181
Pt       9.65395036       7.16619988       0.00000022        0       0.00000000       0.00158147       0.00044696       0.13353115
Pt      12.41222192       7.16619985       0.00000023        0       0.00000000       0.00079800      -0.00179531       0.12332717
Pt       1.37913581       0.79624445       2.38855938        1       0.00000000      -0.00040403      -0.00406732      -0.10621318
Pt       4.13740731       0.79624445       2.38855951        1       0.00000000      -0.01531510      -0.01384686      -0.11373007
Pt       6.89567888       0.79624443       2.38855941        1       0.00000000      -0.00362918      -0.00707054      -0.14499280
Pt       9.65395033       0.79624446       2.38855954        1       0.00000000       0.00751328      -0.01324341      -0.12025498
Pt       2.75827161       3.18497767       2.38855947        1       0.00000000      -0.00718222      -0.01153031      -0.12984793
Pt       5.51654314       3.18497767       2.38855952        1       0.00000000      -0.00498247      -0.00045273      -0.14313649
Pt       8.27481457       3.18497770       2.38855940        1       0.00000000      -0.00005864      -0.00002122      -0.14233449
Pt      11.03308614       3.18497759       2.38855939        1       0.00000000       0.00160590      -0.00767679      -0.13341030
Pt       4.13740736       5.57371086       2.38855937        1       0.00000000      -0.00202693       0.00322602      -0.13773432
Pt       6.89567888       5.57371105       2.38855956        1       0.00000000      -0.00237157       0.00664076      -0.14066443
Pt       9.65395045       5.57371094       2.38855956        1       0.00000000      -0.00337614       0.00304826      -0.13868095
Pt      12.41222194       5.57371108       2.38855958        1       0.00000000      -0.00272107      -0.00573597      -0.12419547
Pt       5.51654310       7.96244423       2.38855960        1       0.00000000      -0.00604940       0.01123592      -0.11616616
Pt       8.27481475       7.96244428       2.38855962        1       0.00000000       0.00450179       0.01143028      -0.11536832
Pt      11.03308616       7.96244430       2.38855961        1       0.00000000      -0.01365275       0.00832676      -0.12134908
Pt      13.79135772       7.96244428       2.38855965        1       0.00000000       0.00570390       0.00640773      -0.12533037
Pt      -0.00801579       1.58851710       4.73965078        2       0.00000000       0.00090892       0.00119965       0.00006171
Pt       2.75724284       1.58754472       4.74285727        2       0.00000000       0.00090113       0.00123668      -0.00087817
Pt       5.51592167       1.59422795       4.73046076        2       0.00000000       0.00091168       0.00103776      -0.00002219
Pt       8.26770448       1.59452642       4.73022919        2       0.00000000       0.00104606       0.00122507       0.00046811
Pt       1.37535641       3.97728608       4.73474218        2       0.00000000       0.00088749       0.00077825       0.00038560
Pt       4.13273131       3.98193263       4.73083013        2       0.00000000       0.00085761       0.00088015      -0.00009581
Pt       6.89157359       3.98119234       4.73192663        2       0.00000000       0.00083135       0.00080801      -0.00019136
Pt       9.65060833       3.98176647       4.73134099        2       0.00000000       0.00090858       0.00084832       0.00011267
Pt       2.75429024       6.37122941       4.73079302        2       0.00000000       0.00085059       0.00087006      -0.00003788
Pt       5.51418085       6.36817138       4.73258961        2       0.00000000       0.00056859       0.00072130      -0.00033414
Pt       8.26988455       6.36791274       4.73273232        2       0.00000000       0.00100086       0.00056911      -0.00066218
Pt      11.02935598       6.37109712       4.73082263        2       0.00000000       0.00141840       0.00062326      -0.00040244
Pt       4.13903603       8.76168856       4.74674307        2       0.00000000       0.00071095       0.00111772       0.00000572
Pt       6.89242811       8.75940035       4.74275413        2       0.00000000       0.00081880       0.00072800      -0.00110161
Pt       9.64459704       8.76209579       4.74865708        2       0.00000000       0.00155045       0.00064408      -0.00132038
Pt      12.40800948       8.75839983       4.73186335        2       0.00000000       0.00141023       0.00122641      -0.00007820
Pt       0.00274373       0.01280795       7.12008828        3       0.00000000       0.00239781       0.00181738      -0.00195910
Pt       2.74312947       0.00660074       7.12017056        3       0.00000000       0.00267032       0.00207302      -0.00477442
Pt       5.51159117       0.00513349       7.09112005        3       0.00000000       0.00252340       0.00111472      -0.00090575
Pt       8.26489350       0.00560172       7.08955814        3       0.00000000       0.00258778       0.00154556       0.00071684
Pt       1.37133446       2.40117396       7.09054407        3       0.00000000       0.00228017       0.00104776       0.00118029
Pt       4.13702109       2.39851167       7.08630056        3       0.00000000       0.00181284       0.00116214       0.00000548
Pt       6.88904326       2.39085385       7.09305823        3       0.00000000       0.00200046       0.00122982       0.00003070
Pt       9.64306234       2.39678023       7.08802170        3       0.00000000       0.00240621       0.00145325       0.00105625
Pt       2.75272115       4.78174273       7.08973131        3       0.00000000       0.00196724       0.00113797       0.00007665
Pt       5.51071830       4.78190400       7.09090356        3       0.00000000       0.00176234       0.00093023      -0.00025347
Pt       8.26704510       4.78119394       7.09069047        3       0.00000000       0.00202384       0.00078004      -0.00031766
Pt      11.02514770       4.78179587       7.08996387        3       0.00000000       0.00233797       0.00106587       0.00013590
Pt       4.13015161       7.16495826       7.08766636        3       0.00000000       0.00180573       0.00115334      -0.00043267
Pt       6.88924367       7.16562100       7.09263116        3       0.00000000       0.00206200       0.00057938      -0.00235209
Pt       9.64989009       7.16266592       7.08802718        3       0.00000000       0.00242614       0.00075634      -0.00210515
Pt      12.40585707       7.17097099       7.08960415        3       0.00000000       0.00221015       0.00158336      -0.00009364
O        1.53037292       0.02702662      10.08567791        0       0.00000000       0.00297197      -0.04263661      -0.01114410
H        2.35076643      -0.12142336       9.55714269        0       0.00000000      -0.00794542       0.01703006      -0.03022122
H        0.86400018       0.09169053       9.35513802        0       0.00000000      -0.01231259       0.00464878      -0.00131483
