67
Lattice="11.033086113260774 5.600493888326504e-08 2.5686178914223706e-08 5.516543105132088 9.554933067924482 1.9872236184885125e-07 0.0 0.0 37.15231387033118" Properties=species:S:1:pos:R:3:tags:I:1:initial_magmoms:R:1:forces:R:3 energy=-385.27545166015625 free_energy=-385.27545166015625 stress="0.00945533117820964 -5.712812244480756e-07 -5.494002723178473e-06 -5.712812244480756e-07 0.009487769345943921 -7.005456338124033e-06 -5.494002723178473e-06 -7.005456338124033e-06 0.0013978891964748948" pbc="T T T"
Pt      -0.00000001       0.00000000       0.00000000        0       0.00000000      -0.00048982      -0.00078392       0.13728070
Pt       2.75827155       0.00000002       0.00000007        0       0.00000000       0.00082697      -0.00090080       0.13666186
Pt       5.51654309       0.00000006       0.00000007        0       0.00000000      -0.00014108      -0.00113458       0.13520592
Pt       8.27481455       0.00000002       0.00000007        0       0.00000000       0.00035276      -0.00128431       0.13495579
Pt       1.37913578       2.38873328       0.00000009        0       0.00000000       0.00001205       0.00243003       0.13295573
Pt       4.13740732       2.38873326       0.00000010        0       0.00000000       0.00159231       0.00088919       0.12680119
Pt       6.89567885       2.38873330       0.00000010        0       0.00000000       0.00019069      -0.00009720       0.13123482
Pt       9.65395039       2.38873333       0.00000011        0       0.00000000      -0.00128338       0.00082621       0.12691301
Pt       2.75827157       4.77746655       0.00000018        0       0.00000000      -0.00107121       0.00088949       0.13665256
Pt       5.51654311       4.77746655       0.00000018        0       0.00000000      -0.00010714       0.00059219       0.13243961
Pt       8.27481459       4.77746656       0.00000016        0       0.00000000       0.00033589       0.00054794       0.13225269
Pt      11.03308612       4.77746666       0.00000025        0       0.00000000       0.00135058       0.00102348       0.13633499
Pt       4.13740734       7.16619989       0.00000032        0       0.00000000      -0.00242563       0.00096355       0.13220811
Pt       6.89567883       7.16619981       0.00000025        0       0.00000000       0.00009943      -0.00025101       0.12914166
Pt       9.65395036       7.16619988       0.00000022        0       0.00000000       0.00256829       0.00087386       0.13238245
Pt      12.41222192       7.16619985       0.00000023        0       0.00000000       0.00009714       0.00079533       0.11837688
Pt       1.37913581       0.79624445       2.38855938        1       0.00000000      -0.00174205      -0.01108632      -0.10928938
Pt       4.13740731       0.79624445       2.38855951        1       0.00000000      -0.00762460      -0.01661553      -0.12216333
Pt       6.89567888       0.79624443       2.38855941        1       0.00000000      -0.00067159      -0.00716909      -0.14439671
Pt       9.65395033       0.79624446       2.38855954        1       0.00000000       0.00776889      -0.01643720      -0.12069122
Pt       2.75827161       3.18497767       2.38855947        1       0.00000000      -0.01664883       0.00460241      -0.12223333
Pt       5.51654314       3.18497767       2.38855952        1       0.00000000      -0.00661680      -0.00344807      -0.14258918
Pt       8.27481457       3.18497770       2.38855940        1       0.00000000       0.00492847      -0.00352695      -0.14332423
Pt      11.03308614       3.18497759       2.38855939        1       0.00000000       0.01603974       0.00326988      -0.12154187
Pt       4.13740736       5.57371086       2.38855937        1       0.00000000      -0.00629601      -0.00092934      -0.14263260
Pt       6.89567888       5.57371105       2.38855956        1       0.00000000      -0.00082813       0.00266147      -0.15090980
Pt       9.65395045       5.57371094       2.38855956        1       0.00000000       0.00531841      -0.00057707      -0.14338438
Pt      12.41222194       5.57371108       2.38855958        1       0.00000000      -0.00045057      -0.01946341      -0.11265758
Pt       5.51654310       7.96244423       2.38855960        1       0.00000000      -0.00169908       0.01891153      -0.11282094
Pt       8.27481475       7.96244428       2.38855962        1       0.00000000       0.00110057       0.01850264      -0.11415654
Pt      11.03308616       7.96244430       2.38855961        1       0.00000000      -0.01229038       0.00465643      -0.11789863
Pt      13.79135772       7.96244428       2.38855965        1       0.00000000       0.01195449       0.00492564      -0.11666213
Pt      -0.00278014       1.59144194       4.73820557        2       0.00000000      -0.00130822       0.00014449      -0.00561596
Pt       2.75931509       1.59137634       4.73718469        2       0.00000000       0.00135978       0.00038807      -0.00529505
Pt       5.51782388       1.59126919       4.73096782        2       0.00000000       0.00111829      -0.00082310       0.00115980
Pt       8.27175127       1.59104043       4.73067686        2       0.00000000      -0.00096144      -0.00081879       0.00079097
Pt       1.37813883       3.96908244       4.75106560        2       0.00000000       0.00018172       0.00409702      -0.00787733
Pt       4.13817204       3.97906005       4.73269279        2       0.00000000       0.00181683       0.00100228      -0.00170936
Pt       6.89475753       3.97938855       4.73082813        2       0.00000000       0.00023329      -0.00054686       0.00339721
Pt       9.65125929       3.97930230       4.73212186        2       0.00000000      -0.00143356       0.00108696      -0.00209133
Pt       2.75642407       6.36736623       4.73048364        2       0.00000000       0.00090404       0.00185007       0.00088350
Pt       5.51492106       6.36544252       4.72872788        2       0.00000000       0.00085382      -0.00050492       0.00274569
Pt       8.27450947       6.36514925       4.72867908        2       0.00000000      -0.00045513      -0.00010735       0.00279981
Pt      11.03324370       6.36729259       4.73048959        2       0.00000000      -0.00048722       0.00188080       0.00088359
Pt       4.14484999       8.76076360       4.74864806        2       0.00000000      -0.00173881      -0.00176902      -0.00040632
Pt       6.89537661       8.75796442       4.74795414        2       0.00000000      -0.00025496      -0.00151777      -0.00007000
Pt       9.64511084       8.76058891       4.74851413        2       0.00000000       0.00210199      -0.00162030      -0.00076284
Pt      12.41139797       8.75484910       4.73031103        2       0.00000000       0.00021331       0.00042347       0.00142948
Pt       0.00597465       0.00297619       7.12240282        3       0.00000000      -0.00154024       0.00139543      -0.01133654
Pt       2.74673826       0.00339185       7.12106090        3       0.00000000       0.00256839       0.00003021      -0.01516216
Pt       5.51889649      -0.00323418       7.08903191        3       0.00000000       0.00150761       0.00002572       0.00426885
Pt       8.26848627      -0.00298412       7.08964180        3       0.00000000      -0.00077853      -0.00014758       0.00332448
Pt       1.37747771       2.36710447       7.10490220        3       0.00000000      -0.00023388       0.00444856      -0.01465826
Pt       4.14142244       2.38512846       7.09069853        3       0.00000000       0.00069678       0.00201841      -0.00383931
Pt       6.89387904       2.38412048       7.09061844        3       0.00000000       0.00017388      -0.00056004       0.00362238
Pt       9.64578075       2.38561740       7.08951206        3       0.00000000      -0.00081554       0.00199565      -0.00432163
Pt       2.76002794       4.77437486       7.09161659        3       0.00000000       0.00139972       0.00415858      -0.00483057
Pt       5.51443142       4.77218725       7.09147025        3       0.00000000       0.00100385       0.00002435       0.00371435
Pt       8.27323063       4.77227142       7.09156881        3       0.00000000      -0.00041675       0.00032951       0.00350881
Pt      11.02739399       4.77397774       7.09163173        3       0.00000000      -0.00105586       0.00408560      -0.00509369
Pt       4.13617551       7.15740677       7.08918413        3       0.00000000       0.00077132       0.00020964       0.00419372
Pt       6.89356779       7.14918346       7.08478947        3       0.00000000      -0.00004173       0.00016100       0.00434840
Pt       9.65130245       7.15746439       7.08875405        3       0.00000000      -0.00005848      -0.00025522       0.00481105
Pt      12.41027371       7.16071339       7.08865955        3       0.00000000       0.00022449       0.00201542       0.00424397
O        1.43692229       0.95496855      10.02425896        0       0.00000000       0.00449771      -0.02161279      -0.01097637
H        2.20014984       0.92642305       9.39679801        0       0.00000000       0.00291690       0.00978019      -0.01360207
H        0.68541590       0.89519104       9.38486352        0       0.00000000      -0.00711393       0.00507561      -0.01692384
