65
Lattice="11.033086113260774 5.600493888326504e-08 2.5686178914223706e-08 5.516543105132088 9.554933067924482 1.9872236184885125e-07 0.0 0.0 37.15231387033118" Properties=species:S:1:pos:R:3:tags:I:1:initial_magmoms:R:1:forces:R:3 energy=-374.5437927246094 free_energy=-374.5437927246094 stress="0.00907190499691652 9.51846689974858e-06 9.926144453954957e-06 9.51846689974858e-06 0.009060911719207641 5.734393480184975e-06 9.926144453954957e-06 5.734393480184975e-06 0.0013994782924388026" pbc="T T T"
Pt      -0.00000001       0.00000000       0.00000000        0       0.00000000      -0.00236176      -0.00136365       0.14245114
Pt       2.75827155       0.00000002       0.00000007        0       0.00000000       0.00242534      -0.00127776       0.14282516
Pt       5.51654309       0.00000006       0.00000007        0       0.00000000       0.00206539      -0.00362880       0.13225538
Pt       8.27481455       0.00000002       0.00000007        0       0.00000000      -0.00172488      -0.00368090       0.13205940
Pt       1.37913578       2.38873328       0.00000009        0       0.00000000       0.00010621       0.00273783       0.14282712
Pt       4.13740732       2.38873326       0.00000010        0       0.00000000       0.00007694       0.00004460       0.13119891
Pt       6.89567885       2.38873330       0.00000010        0       0.00000000       0.00003961      -0.00096112       0.13201410
Pt       9.65395039       2.38873333       0.00000011        0       0.00000000       0.00001383      -0.00003484       0.13091040
Pt       2.75827157       4.77746655       0.00000018        0       0.00000000      -0.00211112       0.00359997       0.13225153
Pt       5.51654311       4.77746655       0.00000018        0       0.00000000      -0.00081319       0.00051520       0.13201189
Pt       8.27481459       4.77746656       0.00000016        0       0.00000000       0.00080142       0.00046049       0.13212147
Pt      11.03308612       4.77746666       0.00000025        0       0.00000000       0.00225651       0.00340575       0.13229859
Pt       4.13740734       7.16619989       0.00000032        0       0.00000000      -0.00404479       0.00034470       0.13205898
Pt       6.89567883       7.16619981       0.00000025        0       0.00000000      -0.00002228       0.00003409       0.13091126
Pt       9.65395036       7.16619988       0.00000022        0       0.00000000       0.00407440       0.00024919       0.13229766
Pt      12.41222192       7.16619985       0.00000023        0       0.00000000       0.00001541       0.00001142       0.11517265
Pt       1.37913581       0.79624445       2.38855938        1       0.00000000       0.00113935       0.00065867      -0.01720312
Pt       4.13740731       0.79624445       2.38855951        1       0.00000000      -0.03332210      -0.01525661      -0.10363716
Pt       6.89567888       0.79624443       2.38855941        1       0.00000000      -0.00141729      -0.00738273      -0.15050375
Pt       9.65395033       0.79624446       2.38855954        1       0.00000000       0.03177009      -0.01590463      -0.10675058
Pt       2.75827161       3.18497767       2.38855947        1       0.00000000      -0.02988285      -0.02123236      -0.10363455
Pt       5.51654314       3.18497767       2.38855952        1       0.00000000      -0.01420072      -0.00820689      -0.16145685
Pt       8.27481457       3.18497770       2.38855940        1       0.00000000       0.01257121      -0.00742992      -0.16268042
Pt      11.03308614       3.18497759       2.38855939        1       0.00000000       0.02975998      -0.02103310      -0.10444761
Pt       4.13740736       5.57371086       2.38855937        1       0.00000000      -0.00709828       0.00247320      -0.15050936
Pt       6.89567888       5.57371105       2.38855956        1       0.00000000      -0.00014824       0.01460490      -0.16267487
Pt       9.65395045       5.57371094       2.38855956        1       0.00000000       0.00621336       0.00359201      -0.15132949
Pt      12.41222194       5.57371108       2.38855958        1       0.00000000      -0.00018672      -0.01267571      -0.13183495
Pt       5.51654310       7.96244423       2.38855960        1       0.00000000       0.00211573       0.03546134      -0.10674474
Pt       8.27481475       7.96244428       2.38855962        1       0.00000000      -0.00333950       0.03628486      -0.10444985
Pt      11.03308616       7.96244430       2.38855961        1       0.00000000      -0.01106545       0.00617851      -0.13182971
Pt      13.79135772       7.96244428       2.38855965        1       0.00000000       0.01105274       0.00638918      -0.13023403
Pt       0.00198499       1.59131823       4.76107019        2       0.00000000      -0.00699029       0.00601317      -0.02424229
Pt       2.75540556       1.59083382       4.76225221        2       0.00000000       0.00865431       0.00501463      -0.02613755
Pt       5.51601226       1.59328146       4.72764855        2       0.00000000       0.00753415       0.00148583      -0.00555375
Pt       8.27384371       1.59347993       4.72696765        2       0.00000000      -0.00362493       0.00153748      -0.00406769
Pt       1.37867292       3.96967089       4.75220670        2       0.00000000       0.00068417       0.00571880      -0.00688725
Pt       4.13782840       3.98036652       4.72764606        2       0.00000000       0.00503731       0.00577293      -0.00553253
Pt       6.89507338       3.98087259       4.72511038        2       0.00000000       0.00021792       0.00012522       0.01786441
Pt       9.65235729       3.98093006       4.72720445        2       0.00000000      -0.00410076       0.00375788      -0.00527172
Pt       2.75749552       6.37031278       4.72715946        2       0.00000000       0.00098229       0.00044614      -0.00227201
Pt       5.51691585       6.36861773       4.72696917        2       0.00000000      -0.00047605      -0.00389328      -0.00407656
Pt       8.27376442       6.36872250       4.72720502        2       0.00000000       0.00120391      -0.00535245      -0.00528176
Pt      11.03353793       6.37021634       4.72712628        2       0.00000000       0.00078874       0.00031132      -0.00285910
Pt       4.14775543       8.76466281       4.75185860        2       0.00000000      -0.00339173      -0.00195794      -0.00346068
Pt       6.89565711       8.76099352       4.76107024        2       0.00000000       0.00170830      -0.00906933      -0.02424264
Pt       9.64371469       8.76406531       4.75220727        2       0.00000000       0.00530065      -0.00229384      -0.00688329
Pt      12.41214318       8.75783856       4.72716265        2       0.00000000       0.00081666       0.00066955      -0.00229181
Pt      -0.00080100      -0.00046224       7.13735918        3       0.00000000       0.02774888       0.01601849       0.00959839
Pt       2.76570501      -0.00327720       7.14006202        3       0.00000000      -0.03312945       0.02186942       0.01325802
Pt       5.52227223      -0.00074502       7.08435015        3       0.00000000       0.00302630       0.00066014      -0.00656274
Pt       8.27282658       0.00027475       7.08363719        3       0.00000000      -0.00245505      -0.00031926      -0.00277546
Pt       1.38001430       2.39680955       7.14006216        3       0.00000000       0.00237814      -0.03961980       0.01325292
Pt       4.14860399       2.39519810       7.09173703        3       0.00000000      -0.00505714      -0.00292046      -0.03897482
Pt       6.89521353       2.38976672       7.08340137        3       0.00000000       0.00202865       0.00602673       0.01230508
Pt       9.64235059       2.39493605       7.09024631        3       0.00000000       0.00830393      -0.00209955      -0.03322718
Pt       2.76049038       4.78280060       7.08435042        3       0.00000000       0.00209188       0.00229412      -0.00657251
Pt       5.51720491       4.77654698       7.08340153        3       0.00000000       0.00623181      -0.00126066       0.01230130
Pt       8.27220002       4.77595743       7.08348234        3       0.00000000      -0.00148511      -0.00086072       0.01187167
Pt      11.02988142       4.78132860       7.08378010        3       0.00000000       0.00150188       0.00379603      -0.00564012
Pt       4.13665075       7.16434059       7.08363731        3       0.00000000      -0.00150787      -0.00196764      -0.00277922
Pt       6.89525055       7.15305325       7.09024699        3       0.00000000       0.00233332       0.00824134      -0.03323108
Pt       9.65569218       7.16149347       7.08378106        3       0.00000000       0.00404477      -0.00059431      -0.00564608
Pt      12.41242759       7.16631869       7.08222241        3       0.00000000       0.00175873       0.00101269       0.00876284
H        1.41231668       0.81540041       8.11497303        0       0.00000000      -0.02691692      -0.01553961       0.01951101
