102
Lattice="13.791603039053763 -1.1704809832993197e-07 6.703336656169091e-07 6.895801418160254 11.94387930607876 1.6811462701697e-06 0.0 0.0 37.15135978955718" Properties=species:S:1:pos:R:3:tags:I:1:initial_magmoms:R:1:forces:R:3 energy=-588.8359375 free_energy=-588.8359375 stress="0.009419657899038593 4.947742447949447e-07 3.92132808410542e-06 4.947742447949447e-07 0.00911401501689701 9.054402294417407e-05 3.92132808410542e-06 9.054402294417407e-05 0.0012713566630514295" pbc="T T T"
Pt       0.00000004       0.00000003       0.00000000        0       0.00000000      -0.00290916      -0.00325583       0.14019513
Pt       2.75832052       0.00000002       0.00000029        0       0.00000000       0.00276882      -0.00327491       0.14010945
Pt       5.51664114      -0.00000007       0.00000030        0       0.00000000      -0.00307757      -0.00418265       0.14024660
Pt       8.27496177      -0.00000001       0.00000044        0       0.00000000      -0.00006803      -0.00252235       0.13650566
Pt      11.03328250      -0.00000006       0.00000064        0       0.00000000       0.00291330      -0.00419075       0.14026877
Pt       1.37916020       2.38877583       0.00000036        0       0.00000000      -0.00007595      -0.00071515       0.13374981
Pt       4.13748100       2.38877577       0.00000041        0       0.00000000      -0.00149762       0.00310889       0.12707174
Pt       6.89580149       2.38877583       0.00000074        0       0.00000000       0.00019214      -0.00181865       0.13156399
Pt       9.65412211       2.38877585       0.00000086        0       0.00000000      -0.00033127      -0.00181798       0.13156116
Pt      12.41244274       2.38877574       0.00000096        0       0.00000000       0.00136237       0.00312449       0.12712163
Pt       2.75832046       4.77755174       0.00000071        0       0.00000000      -0.00017551       0.00096102       0.12699491
Pt       5.51664125       4.77755168       0.00000096        0       0.00000000      -0.00079799      -0.00288791       0.13418543
Pt       8.27496176       4.77755177       0.00000087        0       0.00000000      -0.00006494      -0.00139377       0.13083258
Pt      11.03328240       4.77755159       0.00000113        0       0.00000000       0.00066478      -0.00288756       0.13419130
Pt      13.79160305       4.77755159       0.00000129        0       0.00000000       0.00002734       0.00098528       0.12696436
Pt       4.13748079       7.16632756       0.00000111        0       0.00000000       0.00016757       0.00012336       0.13232493
Pt       6.89580146       7.16632759       0.00000109        0       0.00000000       0.00085723       0.00003629       0.13186067
Pt       9.65412208       7.16632755       0.00000130        0       0.00000000      -0.00098665       0.00002911       0.13182497
Pt      12.41244264       7.16632749       0.00000147        0       0.00000000      -0.00032273       0.00013589       0.13230091
Pt      15.17076330       7.16632753       0.00000168        0       0.00000000      -0.00007235      -0.00150300       0.13164958
Pt       5.51664133       9.55510348       0.00000140        0       0.00000000      -0.00203654       0.00018379       0.13699386
Pt       8.27496170       9.55510347       0.00000156        0       0.00000000      -0.00005531      -0.00616445       0.11663026
Pt      11.03328233       9.55510332       0.00000163        0       0.00000000       0.00191215       0.00017793       0.13692093
Pt      13.79160294       9.55510332       0.00000180        0       0.00000000       0.00710385      -0.00615906       0.12020287
Pt      16.54992351       9.55510324       0.00000197        0       0.00000000      -0.00726025      -0.00615456       0.12023038
Pt       1.37916046       0.79625891       2.38854322        1       0.00000000       0.00008834      -0.01043123      -0.07806784
Pt       4.13748118       0.79625904       2.38854321        1       0.00000000      -0.02400226      -0.04210752      -0.07369536
Pt       6.89580177       0.79625874       2.38854312        1       0.00000000      -0.00054454       0.00199605      -0.15632249
Pt       9.65412216       0.79625869       2.38854340        1       0.00000000       0.00132496       0.00197004      -0.15613136
Pt      12.41244283       0.79625878       2.38854371        1       0.00000000       0.02491357      -0.04215555      -0.07304863
Pt       2.75832072       3.18503486       2.38854320        1       0.00000000       0.01037819      -0.00535673      -0.16990957
Pt       5.51664121       3.18503462       2.38854355        1       0.00000000      -0.00217001       0.00798858      -0.15243073
Pt       8.27496190       3.18503470       2.38854341        1       0.00000000       0.00033884       0.00483187      -0.13594419
Pt      11.03328255       3.18503481       2.38854380        1       0.00000000       0.00290362       0.00791526      -0.15229186
Pt      13.79160321       3.18503467       2.38854404        1       0.00000000      -0.00979657      -0.00544682      -0.16973159
Pt       4.13748100       5.57381065       2.38854369        1       0.00000000      -0.00082887       0.00492013      -0.14816885
Pt       6.89580173       5.57381054       2.38854381        1       0.00000000      -0.00214261       0.00757609      -0.14917628
Pt       9.65412207       5.57381056       2.38854394        1       0.00000000       0.00277799       0.00754579      -0.14918433
Pt      12.41244279       5.57381062       2.38854397        1       0.00000000       0.00147861       0.00477962      -0.14809728
Pt      15.17076346       5.57381055       2.38854403        1       0.00000000       0.00032518       0.00155121      -0.14232504
Pt       5.51664151       7.96258644       2.38854405        1       0.00000000      -0.00140194       0.01916536      -0.14727616
Pt       8.27496191       7.96258639       2.38854430        1       0.00000000       0.00025136       0.00681653      -0.16998200
Pt      11.03328242       7.96258650       2.38854453        1       0.00000000       0.00210768       0.01908412      -0.14739046
Pt      13.79160307       7.96258652       2.38854447        1       0.00000000      -0.00525887       0.01797529      -0.14014339
Pt      16.54992363       7.96258639       2.38854479        1       0.00000000       0.00596431       0.01799898      -0.14014612
Pt       6.89580146      10.35136231       2.38854445        1       0.00000000      -0.03791963       0.05005948      -0.08878800
Pt       9.65412211      10.35136230       2.38854437        1       0.00000000       0.03834739       0.04996063      -0.08920662
Pt      12.41244281      10.35136234       2.38854469        1       0.00000000      -0.04277145       0.03292868      -0.10148446
Pt      15.17076345      10.35136224       2.38854446        1       0.00000000       0.00041884       0.01270254      -0.13531205
Pt      17.92908397      10.35136222       2.38854460        1       0.00000000       0.04332343       0.03292865      -0.10159686
Pt      -0.00730475       1.59148520       4.74494731        2       0.00000000       0.00045122      -0.00156258       0.00260608
Pt       2.76668072       1.59155063       4.74476089        2       0.00000000      -0.00068217      -0.00158698       0.00275567
Pt       5.52374547       1.60754335       4.72691563        2       0.00000000      -0.00149149      -0.00453992       0.00023347
Pt       8.27548672       1.60292937       4.73255170        2       0.00000000      -0.00010832      -0.00665077      -0.00045945
Pt      11.02723740       1.60751141       4.72697156        2       0.00000000       0.00126582      -0.00455934       0.00014728
Pt       1.37963459       3.98957492       4.72188759        2       0.00000000      -0.00006739       0.00076849       0.00083898
Pt       4.13640857       3.99119219       4.72969474        2       0.00000000      -0.00051125      -0.00146243      -0.00078341
Pt       6.89619431       3.99270555       4.73179991        2       0.00000000       0.00007085      -0.00717777       0.00061555
Pt       9.65473190       3.99267272       4.73179770        2       0.00000000      -0.00020143      -0.00711106       0.00064085
Pt      12.41452029       3.99110848       4.72974631        2       0.00000000       0.00036070      -0.00147071      -0.00084941
Pt       2.75791065       6.38389777       4.72858024        2       0.00000000       0.00101567       0.00104265      -0.00011709
Pt       5.51304428       6.37971396       4.72942734        2       0.00000000       0.00197496      -0.00478340       0.00074257
Pt       8.27544308       6.37439619       4.72914457        2       0.00000000      -0.00004283      -0.00655750       0.00196190
Pt      11.03785087       6.37966314       4.72941751        2       0.00000000      -0.00209419      -0.00473035       0.00076923
Pt      13.79297730       6.38387544       4.72857327        2       0.00000000      -0.00116449       0.00104208      -0.00010000
Pt       4.13924381       8.77618110       4.72924751        2       0.00000000       0.00223431      -0.00209210       0.00154115
Pt       6.89650334       8.76452710       4.72862482        2       0.00000000       0.00052801      -0.00472543      -0.00252810
Pt       9.65437715       8.76449681       4.72854475        2       0.00000000      -0.00068606      -0.00464762      -0.00237675
Pt      12.41167218       8.77614495       4.72922078        2       0.00000000      -0.00241537      -0.00205329       0.00151587
Pt      15.17127039       8.77291990       4.72985889        2       0.00000000      -0.00009836      -0.00105564       0.00009722
Pt       5.53634741      11.17141910       4.77887273        2       0.00000000       0.00178488      -0.00305992      -0.00000950
Pt       8.27538124      11.16387447       4.74736369        2       0.00000000      -0.00003527      -0.00239423       0.00010471
Pt      11.01460320      11.17139813       4.77874428        2       0.00000000      -0.00191233      -0.00302159       0.00012612
Pt      13.78769670      11.15891172       4.72912237        2       0.00000000      -0.00115550      -0.00379037       0.00060822
Pt      16.55490348      11.15892725       4.72919151        2       0.00000000       0.00101104      -0.00380529       0.00054860
Pt       0.00936109       0.00985648       7.19750337        3       0.00000000       0.00493935       0.00009672       0.00323738
Pt       2.75088949       0.01024707       7.19624093        3       0.00000000      -0.00507963      -0.00037637       0.00376818
Pt       5.51651317       0.02081660       7.08318757        3       0.00000000      -0.00497508      -0.00298254       0.00089425
Pt       8.27581823       0.01899991       7.08754284        3       0.00000000       0.00007211      -0.00652443       0.00085112
Pt      11.03525689       0.02081531       7.08334975        3       0.00000000       0.00491773      -0.00310201       0.00083020
Pt       1.37996184       2.45804145       7.04593564        3       0.00000000      -0.00011951       0.00186692       0.00236061
Pt       4.14150819       2.41138464       7.08552501        3       0.00000000      -0.00038791      -0.00034932      -0.00148836
Pt       6.89590965       2.40509346       7.09231197        3       0.00000000      -0.00028774      -0.00692382      -0.00007725
Pt       9.65575179       2.40509525       7.09234498        3       0.00000000       0.00006191      -0.00705240      -0.00012505
Pt      12.41020035       2.41122254       7.08565090        3       0.00000000      -0.00000592      -0.00026347      -0.00154617
Pt       2.76425692       4.80972257       7.08745843        3       0.00000000       0.00049092       0.00273426      -0.00268340
Pt       5.51728536       4.79179852       7.09028699        3       0.00000000       0.00201681      -0.00255190       0.00013453
Pt       8.27582239       4.78793210       7.09156819        3       0.00000000      -0.00016237      -0.00683489       0.00246254
Pt      11.03433891       4.79175593       7.09028641        3       0.00000000      -0.00219701      -0.00268548       0.00017154
Pt      13.78733377       4.80973884       7.08746609        3       0.00000000      -0.00079646       0.00266407      -0.00268996
Pt       4.13522341       7.18199035       7.08867210        3       0.00000000       0.00412166       0.00031765       0.00098300
Pt       6.88989731       7.16407134       7.08762601        3       0.00000000       0.00112144      -0.00502083       0.00308734
Pt       9.66170639       7.16408432       7.08760028        3       0.00000000      -0.00137488      -0.00514011       0.00311214
Pt      12.41636540       7.18198902       7.08864937        3       0.00000000      -0.00441077       0.00023214       0.00099364
Pt      15.17160147       7.18768127       7.08942360        3       0.00000000      -0.00017244       0.00230152      -0.00025633
Pt       5.50457902       9.55569163       7.09326602        3       0.00000000       0.00386351       0.00100189       0.00179011
Pt       8.27583860       9.52913713       7.04553686        3       0.00000000      -0.00014838      -0.00948130      -0.00321089
Pt      11.04700454       9.55567441       7.09316419        3       0.00000000      -0.00400927       0.00088554       0.00187510
Pt      13.79468811       9.57356542       7.08770809        3       0.00000000      -0.00264882      -0.00223584       0.00123605
Pt      16.54850883       9.57354762       7.08776225        3       0.00000000       0.00237304      -0.00218811       0.00116226
O        1.38185926      -0.01584411       8.88056693        0       0.00000000      -0.00077455      -0.02527656       0.00781286
H        1.38299284      -0.98501971       9.13615744        0       0.00000000      -0.00080191      -0.00826053      -0.00996575
