102
Lattice="13.791603039053763 -1.1704809832993197e-07 6.703336656169091e-07 6.895801418160254 11.94387930607876 1.6811462701697e-06 0.0 0.0 37.15135978955718" Properties=species:S:1:pos:R:3:tags:I:1:initial_magmoms:R:1:forces:R:3 energy=-588.4804077148438 free_energy=-588.4804077148438 stress="0.008677830775197562 4.447792125272806e-07 4.268054185490221e-06 4.447792125272806e-07 0.008677338960878403 2.468161453035896e-06 4.268054185490221e-06 2.468161453035896e-06 0.0012646060278911624" pbc="T T T"
Pt       0.00000004       0.00000003       0.00000000        0       0.00000000      -0.00341554      -0.00197466       0.14287817
Pt       2.75832052       0.00000002       0.00000029        0       0.00000000       0.00336481      -0.00195090       0.14294904
Pt       5.51664114      -0.00000007       0.00000030        0       0.00000000       0.00133915      -0.00388718       0.12965521
Pt       8.27496177      -0.00000001       0.00000044        0       0.00000000      -0.00004559      -0.00053279       0.13131416
Pt      11.03328250      -0.00000006       0.00000064        0       0.00000000      -0.00134260      -0.00385338       0.12980476
Pt       1.37916020       2.38877583       0.00000036        0       0.00000000      -0.00000487       0.00389103       0.14294916
Pt       4.13748100       2.38877577       0.00000041        0       0.00000000       0.00067381       0.00039346       0.12581679
Pt       6.89580149       2.38877583       0.00000074        0       0.00000000      -0.00185090      -0.00063901       0.13314450
Pt       9.65412211       2.38877585       0.00000086        0       0.00000000       0.00181905      -0.00063164       0.13319260
Pt      12.41244274       2.38877574       0.00000096        0       0.00000000      -0.00074520       0.00040975       0.12583584
Pt       2.75832046       4.77755174       0.00000071        0       0.00000000      -0.00269222       0.00310327       0.12965792
Pt       5.51664125       4.77755168       0.00000096        0       0.00000000      -0.00147792      -0.00128270       0.13314715
Pt       8.27496176       4.77755177       0.00000087        0       0.00000000      -0.00000707      -0.00000355       0.13214827
Pt      11.03328240       4.77755159       0.00000113        0       0.00000000       0.00145119      -0.00124434       0.13311288
Pt      13.79160305       4.77755159       0.00000129        0       0.00000000       0.00264294       0.00304433       0.12969881
Pt       4.13748079       7.16632756       0.00000111        0       0.00000000      -0.00049052       0.00022831       0.13131684
Pt       6.89580146       7.16632759       0.00000109        0       0.00000000       0.00036367       0.00189398       0.13319689
Pt       9.65412208       7.16632755       0.00000130        0       0.00000000      -0.00035430       0.00188011       0.13311529
Pt      12.41244264       7.16632749       0.00000147        0       0.00000000       0.00041606       0.00024093       0.13125688
Pt      15.17076330       7.16632753       0.00000168        0       0.00000000      -0.00004458       0.00658106       0.12288845
Pt       5.51664133       9.55510348       0.00000140        0       0.00000000      -0.00400995       0.00076407       0.12980407
Pt       8.27496170       9.55510347       0.00000156        0       0.00000000      -0.00001810      -0.00084644       0.12583610
Pt      11.03328233       9.55510332       0.00000163        0       0.00000000       0.00395852       0.00076828       0.12969872
Pt      13.79160294       9.55510332       0.00000180        0       0.00000000       0.00567435      -0.00333233       0.12288594
Pt      16.54992351       9.55510324       0.00000197        0       0.00000000      -0.00575303      -0.00332618       0.12296787
Pt       1.37916046       0.79625891       2.38854322        1       0.00000000       0.00034390       0.00019577       0.02672999
Pt       4.13748118       0.79625904       2.38854321        1       0.00000000      -0.03991366      -0.02422187      -0.09608847
Pt       6.89580177       0.79625874       2.38854312        1       0.00000000      -0.00659356       0.00342943      -0.16365448
Pt       9.65412216       0.79625869       2.38854340        1       0.00000000       0.00700519       0.00342006      -0.16329581
Pt      12.41244283       0.79625878       2.38854371        1       0.00000000       0.03958841      -0.02434969      -0.09620851
Pt       2.75832072       3.18503486       2.38854320        1       0.00000000      -0.04093048      -0.02245191      -0.09609294
Pt       5.51664121       3.18503462       2.38854355        1       0.00000000      -0.00570736      -0.00329186      -0.16670509
Pt       8.27496190       3.18503470       2.38854341        1       0.00000000       0.00017035       0.00235632      -0.14944543
Pt      11.03328255       3.18503481       2.38854380        1       0.00000000       0.00593163      -0.00355668      -0.16609213
Pt      13.79160321       3.18503467       2.38854404        1       0.00000000       0.04098086      -0.02237522      -0.09606516
Pt       4.13748100       5.57381065       2.38854369        1       0.00000000      -0.00033449      -0.00742439      -0.16365778
Pt       6.89580173       5.57381054       2.38854381        1       0.00000000       0.00212464      -0.00103169      -0.14944598
Pt       9.65412207       5.57381056       2.38854394        1       0.00000000      -0.00201540      -0.00116264      -0.14930594
Pt      12.41244279       5.57381062       2.38854397        1       0.00000000       0.00035894      -0.00756966      -0.16378999
Pt      15.17076346       5.57381055       2.38854403        1       0.00000000       0.00020096      -0.05238783      -0.12012415
Pt       5.51664151       7.96258644       2.38854405        1       0.00000000       0.00646011       0.00435488      -0.16329572
Pt       8.27496191       7.96258639       2.38854430        1       0.00000000      -0.00011253       0.00690995      -0.16609649
Pt      11.03328242       7.96258650       2.38854453        1       0.00000000      -0.00637218       0.00409552      -0.16379043
Pt      13.79160307       7.96258652       2.38854447        1       0.00000000       0.00071721       0.00041361      -0.15733755
Pt      16.54992363       7.96258639       2.38854479        1       0.00000000      -0.00030054       0.00050116      -0.15708894
Pt       6.89580146      10.35136231       2.38854445        1       0.00000000      -0.00128914       0.04646443      -0.09621101
Pt       9.65412211      10.35136230       2.38854437        1       0.00000000       0.00111226       0.04667817      -0.09606814
Pt      12.41244281      10.35136234       2.38854469        1       0.00000000      -0.04527299       0.02636247      -0.12012850
Pt      15.17076345      10.35136224       2.38854446        1       0.00000000       0.00028724      -0.00051866      -0.15708229
Pt      17.92908397      10.35136222       2.38854460        1       0.00000000       0.04569276       0.02638233      -0.11930805
Pt       0.00720726       1.58856132       4.76548391        2       0.00000000      -0.00085360       0.00065147       0.00383455
Pt       2.75135025       1.58849327       4.76568029        2       0.00000000       0.00115706       0.00065947       0.00385417
Pt       5.51662864       1.59474272       4.72507287        2       0.00000000       0.00313318       0.00048590      -0.00274463
Pt       8.27519435       1.59190197       4.72835249        2       0.00000000       0.00012789      -0.00287027       0.00074168
Pt      11.03374040       1.59463727       4.72532325        2       0.00000000      -0.00285928       0.00076666      -0.00262666
Pt       1.37930650       3.96405472       4.75971395        2       0.00000000       0.00006789      -0.00570451       0.00478744
Pt       4.13940092       3.98016931       4.72507357        2       0.00000000       0.00199985       0.00247912      -0.00274746
Pt       6.89726586       3.98213852       4.73043304        2       0.00000000      -0.00011557      -0.00006128      -0.00025004
Pt       9.65300691       3.98203200       4.73048663        2       0.00000000      -0.00005336       0.00018159      -0.00036362
Pt      12.41076977       3.98007970       4.72515812        2       0.00000000      -0.00184169       0.00234728      -0.00266886
Pt       2.75721982       6.37030047       4.72361008        2       0.00000000      -0.00175100      -0.00263638       0.00165921
Pt       5.51622447       6.37057783       4.72835265        2       0.00000000      -0.00242087       0.00154827       0.00074540
Pt       8.27504448       6.36873470       4.73048780        2       0.00000000       0.00011626      -0.00014714      -0.00036974
Pt      11.03392534       6.37044066       4.72835017        2       0.00000000       0.00263788       0.00152167       0.00082877
Pt      13.79299085       6.37020841       4.72353764        2       0.00000000       0.00194115      -0.00250064       0.00179018
Pt       4.13702385       8.76013503       4.72374878        2       0.00000000       0.00150021       0.00278410       0.00163369
Pt       6.89786614       8.75818251       4.72532401        2       0.00000000      -0.00077617      -0.00287323      -0.00262597
Pt       9.65223431       8.75800293       4.72515824        2       0.00000000       0.00111694      -0.00277058      -0.00266285
Pt      12.41325687       8.75997813       4.72353803        2       0.00000000      -0.00119037       0.00292269       0.00179325
Pt      15.17094846       8.75895091       4.72796845        2       0.00000000       0.00025190       0.00015414      -0.00154734
Pt       5.53187560      11.15641616       4.75986277        2       0.00000000       0.00488102       0.00282202       0.00467368
Pt       8.27513993      11.15583956       4.76548579        2       0.00000000       0.00013333      -0.00105925       0.00383429
Pt      11.01842646      11.15636640       4.75971555        2       0.00000000      -0.00490514       0.00292620       0.00478691
Pt      13.79125279      11.14655239       4.72361128        2       0.00000000      -0.00315300      -0.00020328       0.00166033
Pt      16.55081282      11.14658115       4.72374938        2       0.00000000       0.00314697      -0.00010300       0.00163591
Pt      -0.12010114      -0.06934110       7.16249128        3       0.00000000      -0.00084516      -0.00048715       0.00679018
Pt       2.88029471      -0.06990263       7.16254835        3       0.00000000       0.00154406      -0.00066017       0.00805071
Pt       5.55655964      -0.00369593       7.08064787        3       0.00000000      -0.00451189       0.00406243       0.00362244
Pt       8.27557262       0.00005194       7.08672968        3       0.00000000      -0.00016800      -0.00288663      -0.00156850
Pt      10.99465559      -0.00371164       7.08118750        3       0.00000000       0.00418944       0.00400294       0.00324550
Pt       1.37961038       2.52935996       7.16254918        3       0.00000000       0.00020294       0.00167373       0.00804751
Pt       4.14386561       2.39246288       7.07599100        3       0.00000000       0.00697619       0.00402333      -0.00699493
Pt       6.90155879       2.39375255       7.08669889        3       0.00000000       0.00319200      -0.00047423       0.00281009
Pt       9.64929777       2.39365808       7.08688805        3       0.00000000      -0.00293303      -0.00018992       0.00254443
Pt      12.40729996       2.39206895       7.07654060        3       0.00000000      -0.00670156       0.00386936      -0.00678825
Pt       2.77507922       4.81397078       7.08064777        3       0.00000000       0.00125782      -0.00594213       0.00362384
Pt       5.52382951       4.78004873       7.08669956        3       0.00000000       0.00118666       0.00300340       0.00280714
Pt       8.27532902       4.77776453       7.09359325        3       0.00000000       0.00000323      -0.00000437      -0.00801820
Pt      11.02679425       4.77975419       7.08677073        3       0.00000000      -0.00084252       0.00292295       0.00271726
Pt      13.77562309       4.81384359       7.08048905        3       0.00000000      -0.00110212      -0.00585367       0.00344339
Pt       4.13783164       7.16683026       7.08673022        3       0.00000000      -0.00258737       0.00130309      -0.00156963
Pt       6.89761774       7.15970784       7.08688821        3       0.00000000      -0.00163649      -0.00244054       0.00254339
Pt       9.65278476       7.15960737       7.08677243        3       0.00000000       0.00212348      -0.00218605       0.00271156
Pt      12.41274318       7.16650106       7.08663341        3       0.00000000       0.00271834       0.00157334      -0.00161615
Pt      15.17106462       7.17624117       7.08874815        3       0.00000000       0.00020771      -0.00247539      -0.00252864
Pt       5.49411353       9.52350896       7.08118892        3       0.00000000       0.00555562       0.00161825       0.00323972
Pt       8.27524308       9.54900270       7.07654116        3       0.00000000       0.00000054      -0.00773400      -0.00678474
Pt      11.05672230       9.52311880       7.08048988        3       0.00000000      -0.00562365       0.00196759       0.00344262
Pt      13.80033838       9.55040761       7.08874853        3       0.00000000      -0.00203728       0.00141471      -0.00253123
Pt      16.54188588       9.55046268       7.08888541        3       0.00000000       0.00249395       0.00143797      -0.00247726
O        1.38629606       0.80037852       8.51424470        0       0.00000000      -0.00112016      -0.00064801      -0.00454340
H        1.40221078       0.80956598       9.49902937        0       0.00000000      -0.00541780      -0.00312699      -0.00249416
