66
Lattice="11.033086113260774 5.600493888326504e-08 2.5686178914223706e-08 5.516543105132088 9.554933067924482 1.9872236184885125e-07 0.0 0.0 37.15231387033118" Properties=species:S:1:pos:R:3:tags:I:1:initial_magmoms:R:1:forces:R:3 energy=-380.4130859375 free_energy=-380.4130859375 stress="0.009264516150926506 7.843412384751629e-07 6.101530707053604e-06 7.843412384751629e-07 0.008793824549932142 0.00013912283583503968 6.101530707053604e-06 0.00013912283583503968 0.0012614028174210143" pbc="T T T"
Pt      -0.00000001       0.00000000       0.00000000        0       0.00000000      -0.00293914      -0.00409177       0.14013106
Pt       2.75827155       0.00000002       0.00000007        0       0.00000000       0.00272141      -0.00411696       0.14004079
Pt       5.51654309       0.00000006       0.00000007        0       0.00000000      -0.00122031      -0.00606631       0.14245164
Pt       8.27481455       0.00000002       0.00000007        0       0.00000000       0.00097396      -0.00607323       0.14245489
Pt       1.37913578       2.38873328       0.00000009        0       0.00000000      -0.00012094      -0.00130047       0.13459724
Pt       4.13740732       2.38873326       0.00000010        0       0.00000000      -0.00146183       0.00244508       0.12742755
Pt       6.89567885       2.38873330       0.00000010        0       0.00000000      -0.00011382      -0.00253605       0.12951553
Pt       9.65395039       2.38873333       0.00000011        0       0.00000000       0.00124752       0.00246347       0.12746942
Pt       2.75827157       4.77746655       0.00000018        0       0.00000000      -0.00065611       0.00229321       0.12577215
Pt       5.51654311       4.77746655       0.00000018        0       0.00000000      -0.00072295      -0.00201694       0.13300744
Pt       8.27481459       4.77746656       0.00000016        0       0.00000000       0.00051968      -0.00202316       0.13298139
Pt      11.03308612       4.77746666       0.00000025        0       0.00000000       0.00041729       0.00231902       0.12574458
Pt       4.13740734       7.16619989       0.00000032        0       0.00000000      -0.00244324      -0.00097675       0.13546544
Pt       6.89567883       7.16619981       0.00000025        0       0.00000000      -0.00009441      -0.00682212       0.11678672
Pt       9.65395036       7.16619988       0.00000022        0       0.00000000       0.00222717      -0.00097900       0.13535851
Pt      12.41222192       7.16619985       0.00000023        0       0.00000000      -0.00011290      -0.01162173       0.10790190
Pt       1.37913581       0.79624445       2.38855938        1       0.00000000       0.00025895      -0.00609737      -0.08227313
Pt       4.13740731       0.79624445       2.38855951        1       0.00000000      -0.02721555      -0.03843735      -0.08084994
Pt       6.89567888       0.79624443       2.38855941        1       0.00000000       0.00060097      -0.00097186      -0.17226076
Pt       9.65395033       0.79624446       2.38855954        1       0.00000000       0.02851923      -0.03848321      -0.08022638
Pt       2.75827161       3.18497767       2.38855947        1       0.00000000       0.00903545      -0.00295591      -0.17784019
Pt       5.51654314       3.18497767       2.38855952        1       0.00000000      -0.00403044       0.00992246      -0.16021259
Pt       8.27481457       3.18497770       2.38855940        1       0.00000000       0.00517250       0.00987505      -0.16007353
Pt      11.03308614       3.18497759       2.38855939        1       0.00000000      -0.00806163      -0.00305714      -0.17762545
Pt       4.13740736       5.57371086       2.38855937        1       0.00000000       0.00121652       0.02175897      -0.15291241
Pt       6.89567888       5.57371105       2.38855956        1       0.00000000       0.00045923       0.01445697      -0.17821252
Pt       9.65395045       5.57371094       2.38855956        1       0.00000000      -0.00010126       0.02161915      -0.15289561
Pt      12.41222194       5.57371108       2.38855958        1       0.00000000       0.00051774       0.02025200      -0.13533089
Pt       5.51654310       7.96244423       2.38855960        1       0.00000000      -0.03743348       0.05507565      -0.09569706
Pt       8.27481475       7.96244428       2.38855962        1       0.00000000       0.03819321       0.05497886      -0.09608056
Pt      11.03308616       7.96244430       2.38855961        1       0.00000000      -0.03505073       0.04216622      -0.10586636
Pt      13.79135772       7.96244428       2.38855965        1       0.00000000       0.03597465       0.04212803      -0.10617097
Pt      -0.00638135       1.59696920       4.74506824        2       0.00000000       0.00055401      -0.00493002       0.00230445
Pt       2.76626107       1.59703343       4.74486676        2       0.00000000      -0.00074898      -0.00495389       0.00249776
Pt       5.52213965       1.61128182       4.72636576        2       0.00000000      -0.00071311      -0.00603356       0.00021219
Pt       8.27085598       1.61125221       4.72641695        2       0.00000000       0.00038699      -0.00603340       0.00012217
Pt       1.37990329       3.99708401       4.71956416        2       0.00000000      -0.00013791      -0.00308404       0.00157826
Pt       4.13406675       3.99621711       4.72709680        2       0.00000000      -0.00046750      -0.00546635       0.00010489
Pt       6.89647686       3.99423511       4.72835772        2       0.00000000      -0.00013428      -0.00647145       0.00066309
Pt       9.65888263       3.99614213       4.72714960        2       0.00000000       0.00017299      -0.00545831       0.00000642
Pt       2.76073217       6.39559959       4.72570388        2       0.00000000      -0.00029281      -0.00278115       0.00114156
Pt       5.51767037       6.38284309       4.72794814        2       0.00000000      -0.00080239      -0.00623650      -0.00251523
Pt       8.27522455       6.38281520       4.72787299        2       0.00000000       0.00063393      -0.00619811      -0.00241983
Pt      11.03218723       6.39559355       4.72568069        2       0.00000000      -0.00005915      -0.00268949       0.00118585
Pt       4.15798191       8.78872455       4.77747928        2       0.00000000       0.00101361      -0.00470432      -0.00011235
Pt       6.89636652       8.78174551       4.74700821        2       0.00000000      -0.00002864      -0.00585274       0.00042123
Pt       9.63497062       8.78872748       4.77736823        2       0.00000000      -0.00116785      -0.00468994       0.00012565
Pt      12.41306147       8.77539645       4.72790563        2       0.00000000      -0.00013278      -0.00307601      -0.00010523
Pt       0.01085426       0.01958388       7.19903622        3       0.00000000       0.00490332      -0.00251921       0.00332125
Pt       2.75035220       0.01995993       7.19776710        3       0.00000000      -0.00518066      -0.00298827       0.00376786
Pt       5.51415484       0.02901864       7.08241783        3       0.00000000      -0.00385539      -0.00343824       0.00126433
Pt       8.28004337       0.02902074       7.08258395        3       0.00000000       0.00386483      -0.00353613       0.00121528
Pt       1.38040875       2.46639672       7.04543205        3       0.00000000      -0.00015427      -0.00247339       0.00205219
Pt       4.14098584       2.41715699       7.08573039        3       0.00000000      -0.00028056      -0.00389477      -0.00026950
Pt       6.89704856       2.41030287       7.09348377        3       0.00000000      -0.00017693      -0.00546326      -0.00018227
Pt       9.65311578       2.41703083       7.08587421        3       0.00000000      -0.00016671      -0.00388743      -0.00036129
Pt       2.76379471       4.81501764       7.08585504        3       0.00000000       0.00021241      -0.00083167      -0.00119865
Pt       5.51409473       4.78761107       7.08827473        3       0.00000000      -0.00105690      -0.00588513       0.00149655
Pt       8.27997874       4.78760266       7.08826662        3       0.00000000       0.00059441      -0.00605651       0.00149873
Pt      11.03024797       4.81505517       7.08583761        3       0.00000000      -0.00072247      -0.00108214      -0.00116763
Pt       4.12748381       7.17878464       7.09341238        3       0.00000000       0.00241898       0.00038014       0.00140247
Pt       6.89705212       7.15135224       7.04507992        3       0.00000000      -0.00020624      -0.01225071      -0.00223738
Pt       9.66652001       7.17878262       7.09331722        3       0.00000000      -0.00269482       0.00020516       0.00149953
Pt      12.41355352       7.19373995       7.08734352        3       0.00000000      -0.00021107      -0.00016860       0.00000677
O        1.38237688      -0.00852624       8.88314304        0       0.00000000      -0.00075296      -0.02344529       0.00797042
H        1.38356774      -0.97822593       9.13667779        0       0.00000000      -0.00088780      -0.00713205      -0.00786747
