3
Lattice="15.0 0.0 0.0 0.0 15.0 0.0 0.0 0.0 15.0" Properties=species:S:1:pos:R:3:initial_magmoms:R:1:forces:R:3 energy=-14.132852554321289 free_energy=-14.132852554321289 stress="-5.693550520909452e-06 0.0 2.9330450691048943e-09 0.0 0.0 -3.311369217346711e-11 2.9330450691048943e-09 -3.311369217346711e-11 -1.1113787345036852e-06" pbc="T T T"
O        7.49999995       7.50000000       7.19466819       0.00000000       0.00001657      -0.00000000      -0.00619948
H        8.26735556       7.50000000       7.79966593       0.00000000       0.01251246      -0.00000000       0.00309324
H        6.73264449       7.50000000       7.79966588       0.00000000      -0.01252903      -0.00000000       0.00310627
