67
Lattice="11.033086113260774 5.600493888326504e-08 2.5686178914223706e-08 5.516543105132088 9.554933067924482 1.9872236184885125e-07 0.0 0.0 37.15231387033118" Properties=species:S:1:pos:R:3:tags:I:1:initial_magmoms:R:1:forces:R:3 energy=-384.8779296875 free_energy=-384.8779296875 stress="0.009053954890336032 -5.441091180060309e-05 -0.00026027482481100363 -5.441091180060309e-05 0.009014035341392765 -3.0016728583436704e-05 -0.00026027482481100363 -3.0016728583436704e-05 0.0013086656340589062" pbc="T T T"
Pt      -0.00000001       0.00000000       0.00000000        0       0.00000000       0.00250766      -0.00042545       0.14777452
Pt       2.75827155       0.00000002       0.00000007        0       0.00000000       0.00485506      -0.00298117       0.13910630
Pt       5.51654309       0.00000006       0.00000007        0       0.00000000       0.00338306      -0.00176626       0.13596943
Pt       8.27481455       0.00000002       0.00000007        0       0.00000000       0.00191783      -0.00346001       0.13203272
Pt       1.37913578       2.38873328       0.00000009        0       0.00000000       0.00183222       0.00325247       0.13500842
Pt       4.13740732       2.38873326       0.00000010        0       0.00000000       0.00224505       0.00120756       0.13013509
Pt       6.89567885       2.38873330       0.00000010        0       0.00000000       0.00360000      -0.00032864       0.12994635
Pt       9.65395039       2.38873333       0.00000011        0       0.00000000       0.00562334       0.00208214       0.13162914
Pt       2.75827157       4.77746655       0.00000018        0       0.00000000       0.00196461       0.00285661       0.13059655
Pt       5.51654311       4.77746655       0.00000018        0       0.00000000       0.00300488       0.00082191       0.13288787
Pt       8.27481459       4.77746656       0.00000016        0       0.00000000       0.00449700       0.00018939       0.13370040
Pt      11.03308612       4.77746666       0.00000025        0       0.00000000       0.00425289       0.00707328       0.12322459
Pt       4.13740734       7.16619989       0.00000032        0       0.00000000      -0.00125400       0.00010402       0.12946248
Pt       6.89567883       7.16619981       0.00000025        0       0.00000000       0.00497341       0.00096520       0.13167244
Pt       9.65395036       7.16619988       0.00000022        0       0.00000000       0.01018553      -0.00181898       0.12463751
Pt      12.41222192       7.16619985       0.00000023        0       0.00000000       0.00087673      -0.00337666       0.11546475
Pt       1.37913581       0.79624445       2.38855938        1       0.00000000      -0.04200829      -0.03079961      -0.04226518
Pt       4.13740731       0.79624445       2.38855951        1       0.00000000      -0.03578304      -0.01809229      -0.12586702
Pt       6.89567888       0.79624443       2.38855941        1       0.00000000      -0.01896860      -0.00622830      -0.17336783
Pt       9.65395033       0.79624446       2.38855954        1       0.00000000       0.03377102      -0.02436612      -0.08159717
Pt       2.75827161       3.18497767       2.38855947        1       0.00000000      -0.02116095      -0.01618689      -0.14568219
Pt       5.51654314       3.18497767       2.38855952        1       0.00000000      -0.02031888      -0.00232359      -0.14753427
Pt       8.27481457       3.18497770       2.38855940        1       0.00000000      -0.01162509      -0.00157521      -0.16421323
Pt      11.03308614       3.18497759       2.38855939        1       0.00000000      -0.00841146      -0.03268628      -0.13940457
Pt       4.13740736       5.57371086       2.38855937        1       0.00000000      -0.01470720       0.00056305      -0.15621291
Pt       6.89567888       5.57371105       2.38855956        1       0.00000000      -0.01859571       0.00551645      -0.16801386
Pt       9.65395045       5.57371094       2.38855956        1       0.00000000      -0.01648074       0.00016718      -0.14754830
Pt      12.41222194       5.57371108       2.38855958        1       0.00000000      -0.01546859      -0.01214788      -0.12919293
Pt       5.51654310       7.96244423       2.38855960        1       0.00000000      -0.00520199       0.04928254      -0.07229634
Pt       8.27481475       7.96244428       2.38855962        1       0.00000000      -0.03232018       0.03193744      -0.11460808
Pt      11.03308616       7.96244430       2.38855961        1       0.00000000      -0.02999288       0.00555565      -0.13669300
Pt      13.79135772       7.96244428       2.38855965        1       0.00000000       0.00588803       0.00970650      -0.14477552
Pt      -0.02640331       1.57201204       4.76652741        2       0.00000000       0.00143231       0.00083993       0.00045057
Pt       2.73978745       1.58430343       4.74197345        2       0.00000000       0.00143687       0.00037983       0.00040635
Pt       5.49522088       1.59223454       4.72862611        2       0.00000000       0.00182222       0.00104332      -0.00049438
Pt       8.24694553       1.59407837       4.72421351        2       0.00000000       0.00171199       0.00047525       0.00059064
Pt       1.35420925       3.97183287       4.73142499        2       0.00000000       0.00146734       0.00107652      -0.00056277
Pt       4.11244345       3.97920336       4.73004328        2       0.00000000       0.00121505       0.00107841      -0.00020877
Pt       6.87347181       3.98080820       4.72974487        2       0.00000000       0.00131799       0.00058962      -0.00004064
Pt       9.63498474       3.97727420       4.72683462        2       0.00000000       0.00139063       0.00062841      -0.00002442
Pt       2.73466062       6.37152296       4.72612708        2       0.00000000       0.00172361       0.00147357      -0.00000215
Pt       5.49390798       6.36589030       4.72777180        2       0.00000000       0.00158233       0.00111966       0.00010020
Pt       8.24978120       6.36957943       4.72561589        2       0.00000000       0.00153245       0.00036945      -0.00054750
Pt      11.00884459       6.36945428       4.72719905        2       0.00000000       0.00162964       0.00114513      -0.00004888
Pt       4.12723893       8.76564705       4.76253284        2       0.00000000       0.00246010       0.00132892       0.00203023
Pt       6.85807907       8.76765004       4.77579078        2       0.00000000       0.00223801       0.00087713      -0.00072641
Pt       9.61696753       8.75935919       4.74608852        2       0.00000000       0.00160462       0.00084970       0.00005735
Pt      12.38756426       8.75551518       4.72478458        2       0.00000000       0.00200224       0.00104790       0.00042777
Pt      -0.05806706       0.00206933       7.21098048        3       0.00000000       0.00586250       0.00241637       0.00260131
Pt       2.71209513       0.01386176       7.12994776        3       0.00000000       0.00310726       0.00169786       0.00048517
Pt       5.46817951       0.00326987       7.08748889        3       0.00000000       0.00228585       0.00178169      -0.00132599
Pt       8.20501976       0.00310804       7.06822998        3       0.00000000       0.00375139       0.00191091       0.00194564
Pt       1.34888653       2.41537279       7.08216704        3       0.00000000       0.00308187       0.00310601      -0.00103152
Pt       4.10169206       2.39703267       7.09121825        3       0.00000000       0.00264720       0.00136607      -0.00134701
Pt       6.84976199       2.39055223       7.09063877        3       0.00000000       0.00275547       0.00144049       0.00024429
Pt       9.59768928       2.40742857       7.07748306        3       0.00000000       0.00299735       0.00148139       0.00053242
Pt       2.71893468       4.78003358       7.08972635        3       0.00000000       0.00266924       0.00234906      -0.00038651
Pt       5.47710947       4.77479630       7.08969567        3       0.00000000       0.00241208       0.00147023      -0.00006771
Pt       8.23395710       4.77767069       7.08909892        3       0.00000000       0.00272493       0.00154047      -0.00025421
Pt      10.99124949       4.78271624       7.08854142        3       0.00000000       0.00259472       0.00174431      -0.00044733
Pt       4.08534934       7.14722530       7.07642459        3       0.00000000       0.00303067       0.00191681       0.00092688
Pt       6.86397359       7.14177670       7.07623547        3       0.00000000       0.00266134       0.00106434      -0.00094804
Pt       9.61405169       7.16160275       7.08652642        3       0.00000000       0.00264500       0.00191549      -0.00115961
Pt      12.36502466       7.16598913       7.08647969        3       0.00000000       0.00303577       0.00228614      -0.00011510
O       -0.17200552      -0.02874074       9.19792081        0       0.00000000       0.03815171       0.00714455       0.00405496
O        1.07235273       0.04331276       9.91636093        0       0.00000000       0.04069453      -0.00040370      -0.00253618
H        1.75832842       0.06312175       9.17422252        0       0.00000000       0.04324286      -0.01326937      -0.01655462
