unknown system                          
   1.00000000000000     
     4.192000    0.000000    0.000000
     0.000000    4.192000    0.000000
     0.000000    0.000000    4.192000
   Ba   Zr   O 
     1     1     2
Direct
  0.000000  0.000000  0.000000
  0.500000  0.500000  0.500000
  0.500000  0.000000  0.500000
  0.000000  0.500000  0.500000
 
   48   48   48
  12.499      17.260      30.463      49.165      69.356      86.980      98.867      103.33      100.30      91.048    
  77.686      62.529      47.635      34.519      24.088      16.582      11.459      8.0622      5.8487      4.4209    
  3.5089      2.9383      2.5984      2.4202      2.3649      2.4202      2.5984      2.9383      3.5089      4.4209    
  5.8487      8.0622      11.459      16.582      24.088      34.519      47.635      62.529      77.686      91.048    
  100.30      103.33      98.867      86.980      69.356      49.165      30.463      17.260      17.260      21.837    
  34.520      52.452      71.743      88.461      99.543      103.37      99.907      90.422      76.982      61.863    
  47.074      34.092      23.799      16.404      11.358      8.0106      5.8284      4.4197      3.5193      2.9555    
  2.6194      2.4431      2.3884      2.4431      2.6194      2.9555      3.5193      4.4197      5.8284      8.0106    
  11.358      16.404      23.799      34.092      47.074      61.863      76.982      90.422      99.907      103.37    
  99.543      88.461      71.743      52.452      34.520      21.837      30.463      34.520      45.732      61.487    
  78.234      92.399      101.22      103.28      98.621      88.495      74.869      59.885      45.421      32.844    
  22.957      15.887      11.063      7.8609      5.7699      4.4171      3.5504      3.0067      2.6820      2.5113    
  2.4584      2.5113      2.6820      3.0067      3.5504      4.4171      5.7699      7.8609      11.063      15.887    
  22.957      32.844      45.421      59.885      74.869      88.495      98.621      103.28      101.22      92.399    
  78.234      61.487      45.732      34.520      49.165      52.452      61.487      74.025      87.022      97.437    
  102.96      102.47      96.130      85.151      71.350      56.664      42.767      30.864      21.639      15.079    
  10.604      7.6282      5.6800      4.4154      3.6025      3.0910      2.7848      2.6236      2.5736      2.6236    
  2.7848      3.0910      3.6025      4.4154      5.6800      7.6282      10.604      15.079      21.639      30.864    
  42.767      56.664      71.350      85.151      96.130      102.47      102.96      97.437      87.022      74.025    
  61.487      52.452      69.356      71.743      78.234      87.022      95.667      101.76      103.53      100.20    
  92.065      80.283      66.476      52.327      39.266      28.299      19.955      14.051      10.020      7.3344    
  5.5692      4.4186      3.6761      3.2074      2.9262      2.7779      2.7318      2.7779      2.9262      3.2074    
  3.6761      4.4186      5.5692      7.3344      10.020      14.051      19.955      28.299      39.266      52.327    
  66.476      80.283      92.065      100.20      103.53      101.76      95.667      87.022      78.234      71.743    
  86.980      88.461      92.399      97.437      101.76      103.62      101.78      95.819      86.164      73.884    
  60.386      47.080      35.133      25.344      18.041      12.885      9.3619      7.0062      5.4510      4.4325    
  3.7728      3.3553      3.1044      2.9720      2.9308      2.9720      3.1044      3.3553      3.7728      4.4325    
  5.4510      7.0062      9.3619      12.885      18.041      25.344      35.133      47.080      60.386      73.884    
  86.164      95.819      101.78      103.62      101.76      97.437      92.399      88.461      98.867      99.543    
  101.22      102.96      103.53      101.78      96.976      89.015      78.405      66.119      53.341      41.209    
  30.638      22.223      16.035      11.669      8.6794      6.6719      5.3399      4.4639      3.8949      3.5345    
  3.3180      3.2039      3.1684      3.2039      3.3180      3.5345      3.8949      4.4639      5.3399      6.6719    
  8.6794      11.669      16.035      22.223      30.638      41.209      53.341      66.119      78.405      89.015    
  96.976      101.78      103.53      102.96      101.22      99.543      103.33      103.37      103.28      102.47    
  100.20      95.819      89.015      79.913      69.073      57.354      45.724      35.073      26.089      19.144    
  14.066      10.482      8.0197      6.3583      5.2508      4.5203      4.0456      3.7457      3.5662      3.4721    
  3.4429      3.4721      3.5662      3.7457      4.0456      4.5203      5.2508      6.3583      8.0197      10.482    
  14.066      19.144      26.089      35.073      45.724      57.354      69.073      79.913      89.015      95.819    
  100.20      102.47      103.28      103.37      100.30      99.907      98.621      96.130      92.065      86.164    
  78.405      69.073      58.732      48.119      38.006      29.069      21.800      16.274      12.240      9.3891    
  7.4220      6.0886      5.1969      4.6087      4.2282      3.9896      3.8484      3.7752      3.7526      3.7752    
  3.8484      3.9896      4.2282      4.6087      5.1969      6.0886      7.4220      9.3891      12.240      16.274    
  21.800      29.069      38.006      48.119      58.732      69.073      78.405      86.164      92.065      96.130    
  98.621      99.907      91.048      90.422      88.495      85.151      80.283      73.884      66.119      57.354    
  48.119      39.029      30.686      23.594      17.981      13.733      10.633      8.4362      6.9145      5.8800    
  5.1886      4.7352      4.4454      4.2672      4.1640      4.1116      4.0957      4.1116      4.1640      4.2672    
  4.4454      4.7352      5.1886      5.8800      6.9145      8.4362      10.633      13.733      17.981      23.594    
  30.686      39.029      48.119      57.354      66.119      73.884      80.283      85.151      88.495      90.422    
  77.686      76.982      74.869      71.350      66.476      60.386      53.341      45.724      38.006      30.686    
  24.228      18.913      14.739      11.588      9.2850      7.6489      6.5136      5.7430      5.2322      4.9031    
  4.6989      4.5782      4.5118      4.4797      4.4703      4.4797      4.5118      4.5782      4.6989      4.9031    
  5.2322      5.7430      6.5136      7.6489      9.2850      11.588      14.739      18.913      24.228      30.686    
  38.006      45.724      53.341      60.386      66.476      71.350      74.869      76.982      62.529      61.863    
  59.885      56.664      52.327      47.080      41.209      35.073      29.069      23.594      18.913      15.095    
  12.107      9.8526      8.2045      7.0334      6.2240      5.6811      5.3299      5.1134      4.9880      4.9213    
  4.8898      4.8771      4.8740      4.8771      4.8898      4.9213      4.9880      5.1134      5.3299      5.6811    
  6.2240      7.0334      8.2045      9.8526      12.107      15.095      18.913      23.594      29.069      35.073    
  41.209      47.080      52.327      56.664      59.885      61.863      47.635      47.074      45.421      42.767    
  39.266      35.133      30.638      26.089      21.800      17.981      14.739      12.107      10.052      8.5049    
  7.3769      6.5816      6.0415      5.6918      5.4799      5.3639      5.3105      5.2939      5.2952      5.3011    
  5.3039      5.3011      5.2952      5.2939      5.3105      5.3639      5.4799      5.6918      6.0415      6.5816    
  7.3769      8.5049      10.052      12.107      14.739      17.981      21.800      26.089      30.638      35.133    
  39.266      42.767      45.421      47.074      34.519      34.092      32.844      30.864      28.299      25.344    
  22.223      19.144      16.274      13.733      11.588      9.8526      8.5049      7.4972      6.7730      6.2761    
  5.9560      5.7688      5.6775      5.6506      5.6625      5.6923      5.7244      5.7479      5.7565      5.7479    
  5.7244      5.6923      5.6625      5.6506      5.6775      5.7688      5.9560      6.2761      6.7730      7.4972    
  8.5049      9.8526      11.588      13.733      16.274      19.144      22.223      25.344      28.299      30.864    
  32.844      34.092      24.088      23.799      22.957      21.639      19.955      18.041      16.035      14.066    
  12.240      10.633      9.2850      8.2045      7.3769      6.7730      6.3576      6.0956      5.9540      5.9031    
  5.9157      5.9679      6.0390      6.1117      6.1729      6.2132      6.2273      6.2132      6.1729      6.1117    
  6.0390      5.9679      5.9157      5.9031      5.9540      6.0956      6.3576      6.7730      7.3769      8.2045    
  9.2850      10.633      12.240      14.066      16.035      18.041      19.955      21.639      22.957      23.799    
  16.582      16.404      15.887      15.079      14.051      12.885      11.669      10.482      9.3891      8.4362    
  7.6489      7.0334      6.5816      6.2761      6.0956      6.0178      6.0210      6.0840      6.1863      6.3086    
  6.4334      6.5460      6.6348      6.6913      6.7107      6.6913      6.6348      6.5460      6.4334      6.3086    
  6.1863      6.0840      6.0210      6.0178      6.0956      6.2761      6.5816      7.0334      7.6489      8.4362    
  9.3891      10.482      11.669      12.885      14.051      15.079      15.887      16.404      11.459      11.358    
  11.063      10.604      10.020      9.3619      8.6794      8.0197      7.4220      6.9145      6.5136      6.2240    
  6.0415      5.9560      5.9540      6.0210      6.1417      6.3001      6.4796      6.6639      6.8377      6.9875    
  7.1024      7.1745      7.1991      7.1745      7.1024      6.9875      6.8377      6.6639      6.4796      6.3001    
  6.1417      6.0210      5.9540      5.9560      6.0415      6.2240      6.5136      6.9145      7.4220      8.0197    
  8.6794      9.3619      10.020      10.604      11.063      11.358      8.0622      8.0106      7.8609      7.6282    
  7.3344      7.0062      6.6719      6.3583      6.0886      5.8800      5.7430      5.6811      5.6918      5.7688    
  5.9031      6.0840      6.3001      6.5382      6.7842      7.0235      7.2418      7.4261      7.5657      7.6527    
  7.6822      7.6527      7.5657      7.4261      7.2418      7.0235      6.7842      6.5382      6.3001      6.0840    
  5.9031      5.7688      5.6918      5.6811      5.7430      5.8800      6.0886      6.3583      6.6719      7.0062    
  7.3344      7.6282      7.8609      8.0106      5.8487      5.8284      5.7699      5.6800      5.5692      5.4510    
  5.3399      5.2508      5.1969      5.1886      5.2322      5.3299      5.4799      5.6775      5.9157      6.1863    
  6.4796      6.7842      7.0873      7.3749      7.6333      7.8493      8.0119      8.1129      8.1471      8.1129    
  8.0119      7.8493      7.6333      7.3749      7.0873      6.7842      6.4796      6.1863      5.9157      5.6775    
  5.4799      5.3299      5.2322      5.1886      5.1969      5.2508      5.3399      5.4510      5.5692      5.6800    
  5.7699      5.8284      4.4209      4.4197      4.4171      4.4154      4.4186      4.4325      4.4639      4.5203    
  4.6087      4.7352      4.9031      5.1134      5.3639      5.6506      5.9679      6.3086      6.6639      7.0235    
  7.3749      7.7046      7.9984      8.2427      8.4261      8.5398      8.5783      8.5398      8.4261      8.2427    
  7.9984      7.7046      7.3749      7.0235      6.6639      6.3086      5.9679      5.6506      5.3639      5.1134    
  4.9031      4.7352      4.6087      4.5203      4.4639      4.4325      4.4186      4.4154      4.4171      4.4197    
  3.5089      3.5193      3.5504      3.6025      3.6761      3.7728      3.8949      4.0456      4.2282      4.4454    
  4.6989      4.9880      5.3105      5.6625      6.0390      6.4334      6.8377      7.2418      7.6333      7.9984    
  8.3224      8.5912      8.7925      8.9171      8.9593      8.9171      8.7925      8.5912      8.3224      7.9984    
  7.6333      7.2418      6.8377      6.4334      6.0390      5.6625      5.3105      4.9880      4.6989      4.4454    
  4.2282      4.0456      3.8949      3.7728      3.6761      3.6025      3.5504      3.5193      2.9383      2.9555    
  3.0067      3.0910      3.2074      3.3553      3.5345      3.7457      3.9896      4.2672      4.5782      4.9213    
  5.2939      5.6923      6.1117      6.5460      6.9875      7.4261      7.8493      8.2427      8.5912      8.8797    
  9.0956      9.2292      9.2743      9.2292      9.0956      8.8797      8.5912      8.2427      7.8493      7.4261    
  6.9875      6.5460      6.1117      5.6923      5.2939      4.9213      4.5782      4.2672      3.9896      3.7457    
  3.5345      3.3553      3.2074      3.0910      3.0067      2.9555      2.5984      2.6194      2.6820      2.7848    
  2.9262      3.1044      3.3180      3.5662      3.8484      4.1640      4.5118      4.8898      5.2952      5.7244    
  6.1729      6.6348      7.1024      7.5657      8.0119      8.4261      8.7925      9.0956      9.3222      9.4623    
  9.5097      9.4623      9.3222      9.0956      8.7925      8.4261      8.0119      7.5657      7.1024      6.6348    
  6.1729      5.7244      5.2952      4.8898      4.5118      4.1640      3.8484      3.5662      3.3180      3.1044    
  2.9262      2.7848      2.6820      2.6194      2.4202      2.4431      2.5113      2.6236      2.7779      2.9720    
  3.2039      3.4721      3.7752      4.1116      4.4797      4.8771      5.3011      5.7479      6.2132      6.6913    
  7.1745      7.6527      8.1129      8.5398      8.9171      9.2292      9.4623      9.6063      9.6550      9.6063    
  9.4623      9.2292      8.9171      8.5398      8.1129      7.6527      7.1745      6.6913      6.2132      5.7479    
  5.3011      4.8771      4.4797      4.1116      3.7752      3.4721      3.2039      2.9720      2.7779      2.6236    
  2.5113      2.4431      2.3649      2.3884      2.4584      2.5736      2.7318      2.9308      3.1684      3.4429    
  3.7526      4.0957      4.4703      4.8740      5.3039      5.7565      6.2273      6.7107      7.1991      7.6822    
  8.1471      8.5783      8.9593      9.2743      9.5097      9.6550      9.7042      9.6550      9.5097      9.2743    
  8.9593      8.5783      8.1471      7.6822      7.1991      6.7107      6.2273      5.7565      5.3039      4.8740    
  4.4703      4.0957      3.7526      3.4429      3.1684      2.9308      2.7318      2.5736      2.4584      2.3884    
  2.4202      2.4431      2.5113      2.6236      2.7779      2.9720      3.2039      3.4721      3.7752      4.1116    
  4.4797      4.8771      5.3011      5.7479      6.2132      6.6913      7.1745      7.6527      8.1129      8.5398    
  8.9171      9.2292      9.4623      9.6063      9.6550      9.6063      9.4623      9.2292      8.9171      8.5398    
  8.1129      7.6527      7.1745      6.6913      6.2132      5.7479      5.3011      4.8771      4.4797      4.1116    
  3.7752      3.4721      3.2039      2.9720      2.7779      2.6236      2.5113      2.4431      2.5984      2.6194    
  2.6820      2.7848      2.9262      3.1044      3.3180      3.5662      3.8484      4.1640      4.5118      4.8898    
  5.2952      5.7244      6.1729      6.6348      7.1024      7.5657      8.0119      8.4261      8.7925      9.0956    
  9.3222      9.4623      9.5097      9.4623      9.3222      9.0956      8.7925      8.4261      8.0119      7.5657    
  7.1024      6.6348      6.1729      5.7244      5.2952      4.8898      4.5118      4.1640      3.8484      3.5662    
  3.3180      3.1044      2.9262      2.7848      2.6820      2.6194      2.9383      2.9555      3.0067      3.0910    
  3.2074      3.3553      3.5345      3.7457      3.9896      4.2672      4.5782      4.9213      5.2939      5.6923    
  6.1117      6.5460      6.9875      7.4261      7.8493      8.2427      8.5912      8.8797      9.0956      9.2292    
  9.2743      9.2292      9.0956      8.8797      8.5912      8.2427      7.8493      7.4261      6.9875      6.5460    
  6.1117      5.6923      5.2939      4.9213      4.5782      4.2672      3.9896      3.7457      3.5345      3.3553    
  3.2074      3.0910      3.0067      2.9555      3.5089      3.5193      3.5504      3.6025      3.6761      3.7728    
  3.8949      4.0456      4.2282      4.4454      4.6989      4.9880      5.3105      5.6625      6.0390      6.4334    
  6.8377      7.2418      7.6333      7.9984      8.3224      8.5912      8.7925      8.9171      8.9593      8.9171    
  8.7925      8.5912      8.3224      7.9984      7.6333      7.2418      6.8377      6.4334      6.0390      5.6625    
  5.3105      4.9880      4.6989      4.4454      4.2282      4.0456      3.8949      3.7728      3.6761      3.6025    
  3.5504      3.5193      4.4209      4.4197      4.4171      4.4154      4.4186      4.4325      4.4639      4.5203    
  4.6087      4.7352      4.9031      5.1134      5.3639      5.6506      5.9679      6.3086      6.6639      7.0235    
  7.3749      7.7046      7.9984      8.2427      8.4261      8.5398      8.5783      8.5398      8.4261      8.2427    
  7.9984      7.7046      7.3749      7.0235      6.6639      6.3086      5.9679      5.6506      5.3639      5.1134    
  4.9031      4.7352      4.6087      4.5203      4.4639      4.4325      4.4186      4.4154      4.4171      4.4197    
  5.8487      5.8284      5.7699      5.6800      5.5692      5.4510      5.3399      5.2508      5.1969      5.1886    
  5.2322      5.3299      5.4799      5.6775      5.9157      6.1863      6.4796      6.7842      7.0873      7.3749    
  7.6333      7.8493      8.0119      8.1129      8.1471      8.1129      8.0119      7.8493      7.6333      7.3749    
  7.0873      6.7842      6.4796      6.1863      5.9157      5.6775      5.4799      5.3299      5.2322      5.1886    
  5.1969      5.2508      5.3399      5.4510      5.5692      5.6800      5.7699      5.8284      8.0622      8.0106    
  7.8609      7.6282      7.3344      7.0062      6.6719      6.3583      6.0886      5.8800      5.7430      5.6811    
  5.6918      5.7688      5.9031      6.0840      6.3001      6.5382      6.7842      7.0235      7.2418      7.4261    
  7.5657      7.6527      7.6822      7.6527      7.5657      7.4261      7.2418      7.0235      6.7842      6.5382    
  6.3001      6.0840      5.9031      5.7688      5.6918      5.6811      5.7430      5.8800      6.0886      6.3583    
  6.6719      7.0062      7.3344      7.6282      7.8609      8.0106      11.459      11.358      11.063      10.604    
  10.020      9.3619      8.6794      8.0197      7.4220      6.9145      6.5136      6.2240      6.0415      5.9560    
  5.9540      6.0210      6.1417      6.3001      6.4796      6.6639      6.8377      6.9875      7.1024      7.1745    
  7.1991      7.1745      7.1024      6.9875      6.8377      6.6639      6.4796      6.3001      6.1417      6.0210    
  5.9540      5.9560      6.0415      6.2240      6.5136      6.9145      7.4220      8.0197      8.6794      9.3619    
  10.020      10.604      11.063      11.358      16.582      16.404      15.887      15.079      14.051      12.885    
  11.669      10.482      9.3891      8.4362      7.6489      7.0334      6.5816      6.2761      6.0956      6.0178    
  6.0210      6.0840      6.1863      6.3086      6.4334      6.5460      6.6348      6.6913      6.7107      6.6913    
  6.6348      6.5460      6.4334      6.3086      6.1863      6.0840      6.0210      6.0178      6.0956      6.2761    
  6.5816      7.0334      7.6489      8.4362      9.3891      10.482      11.669      12.885      14.051      15.079    
  15.887      16.404      24.088      23.799      22.957      21.639      19.955      18.041      16.035      14.066    
  12.240      10.633      9.2850      8.2045      7.3769      6.7730      6.3576      6.0956      5.9540      5.9031    
  5.9157      5.9679      6.0390      6.1117      6.1729      6.2132      6.2273      6.2132      6.1729      6.1117    
  6.0390      5.9679      5.9157      5.9031      5.9540      6.0956      6.3576      6.7730      7.3769      8.2045    
  9.2850      10.633      12.240      14.066      16.035      18.041      19.955      21.639      22.957      23.799    
  34.519      34.092      32.844      30.864      28.299      25.344      22.223      19.144      16.274      13.733    
  11.588      9.8526      8.5049      7.4972      6.7730      6.2761      5.9560      5.7688      5.6775      5.6506    
  5.6625      5.6923      5.7244      5.7479      5.7565      5.7479      5.7244      5.6923      5.6625      5.6506    
  5.6775      5.7688      5.9560      6.2761      6.7730      7.4972      8.5049      9.8526      11.588      13.733    
  16.274      19.144      22.223      25.344      28.299      30.864      32.844      34.092      47.635      47.074    
  45.421      42.767      39.266      35.133      30.638      26.089      21.800      17.981      14.739      12.107    
  10.052      8.5049      7.3769      6.5816      6.0415      5.6918      5.4799      5.3639      5.3105      5.2939    
  5.2952      5.3011      5.3039      5.3011      5.2952      5.2939      5.3105      5.3639      5.4799      5.6918    
  6.0415      6.5816      7.3769      8.5049      10.052      12.107      14.739      17.981      21.800      26.089    
  30.638      35.133      39.266      42.767      45.421      47.074      62.529      61.863      59.885      56.664    
  52.327      47.080      41.209      35.073      29.069      23.594      18.913      15.095      12.107      9.8526    
  8.2045      7.0334      6.2240      5.6811      5.3299      5.1134      4.9880      4.9213      4.8898      4.8771    
  4.8740      4.8771      4.8898      4.9213      4.9880      5.1134      5.3299      5.6811      6.2240      7.0334    
  8.2045      9.8526      12.107      15.095      18.913      23.594      29.069      35.073      41.209      47.080    
  52.327      56.664      59.885      61.863      77.686      76.982      74.869      71.350      66.476      60.386    
  53.341      45.724      38.006      30.686      24.228      18.913      14.739      11.588      9.2850      7.6489    
  6.5136      5.7430      5.2322      4.9031      4.6989      4.5782      4.5118      4.4797      4.4703      4.4797    
  4.5118      4.5782      4.6989      4.9031      5.2322      5.7430      6.5136      7.6489      9.2850      11.588    
  14.739      18.913      24.228      30.686      38.006      45.724      53.341      60.386      66.476      71.350    
  74.869      76.982      91.048      90.422      88.495      85.151      80.283      73.884      66.119      57.354    
  48.119      39.029      30.686      23.594      17.981      13.733      10.633      8.4362      6.9145      5.8800    
  5.1886      4.7352      4.4454      4.2672      4.1640      4.1116      4.0957      4.1116      4.1640      4.2672    
  4.4454      4.7352      5.1886      5.8800      6.9145      8.4362      10.633      13.733      17.981      23.594    
  30.686      39.029      48.119      57.354      66.119      73.884      80.283      85.151      88.495      90.422    
  100.30      99.907      98.621      96.130      92.065      86.164      78.405      69.073      58.732      48.119    
  38.006      29.069      21.800      16.274      12.240      9.3891      7.4220      6.0886      5.1969      4.6087    
  4.2282      3.9896      3.8484      3.7752      3.7526      3.7752      3.8484      3.9896      4.2282      4.6087    
  5.1969      6.0886      7.4220      9.3891      12.240      16.274      21.800      29.069      38.006      48.119    
  58.732      69.073      78.405      86.164      92.065      96.130      98.621      99.907      103.33      103.37    
  103.28      102.47      100.20      95.819      89.015      79.913      69.073      57.354      45.724      35.073    
  26.089      19.144      14.066      10.482      8.0197      6.3583      5.2508      4.5203      4.0456      3.7457    
  3.5662      3.4721      3.4429      3.4721      3.5662      3.7457      4.0456      4.5203      5.2508      6.3583    
  8.0197      10.482      14.066      19.144      26.089      35.073      45.724      57.354      69.073      79.913    
  89.015      95.819      100.20      102.47      103.28      103.37      98.867      99.543      101.22      102.96    
  103.53      101.78      96.976      89.015      78.405      66.119      53.341      41.209      30.638      22.223    
  16.035      11.669      8.6794      6.6719      5.3399      4.4639      3.8949      3.5345      3.3180      3.2039    
  3.1684      3.2039      3.3180      3.5345      3.8949      4.4639      5.3399      6.6719      8.6794      11.669    
  16.035      22.223      30.638      41.209      53.341      66.119      78.405      89.015      96.976      101.78    
  103.53      102.96      101.22      99.543      86.980      88.461      92.399      97.437      101.76      103.62    
  101.78      95.819      86.164      73.884      60.386      47.080      35.133      25.344      18.041      12.885    
  9.3619      7.0062      5.4510      4.4325      3.7728      3.3553      3.1044      2.9720      2.9308      2.9720    
  3.1044      3.3553      3.7728      4.4325      5.4510      7.0062      9.3619      12.885      18.041      25.344    
  35.133      47.080      60.386      73.884      86.164      95.819      101.78      103.62      101.76      97.437    
  92.399      88.461      69.356      71.743      78.234      87.022      95.667      101.76      103.53      100.20    
  92.065      80.283      66.476      52.327      39.266      28.299      19.955      14.051      10.020      7.3344    
  5.5692      4.4186      3.6761      3.2074      2.9262      2.7779      2.7318      2.7779      2.9262      3.2074    
  3.6761      4.4186      5.5692      7.3344      10.020      14.051      19.955      28.299      39.266      52.327    
  66.476      80.283      92.065      100.20      103.53      101.76      95.667      87.022      78.234      71.743    
  49.165      52.452      61.487      74.025      87.022      97.437      102.96      102.47      96.130      85.151    
  71.350      56.664      42.767      30.864      21.639      15.079      10.604      7.6282      5.6800      4.4154    
  3.6025      3.0910      2.7848      2.6236      2.5736      2.6236      2.7848      3.0910      3.6025      4.4154    
  5.6800      7.6282      10.604      15.079      21.639      30.864      42.767      56.664      71.350      85.151    
  96.130      102.47      102.96      97.437      87.022      74.025      61.487      52.452      30.463      34.520    
  45.732      61.487      78.234      92.399      101.22      103.28      98.621      88.495      74.869      59.885    
  45.421      32.844      22.957      15.887      11.063      7.8609      5.7699      4.4171      3.5504      3.0067    
  2.6820      2.5113      2.4584      2.5113      2.6820      3.0067      3.5504      4.4171      5.7699      7.8609    
  11.063      15.887      22.957      32.844      45.421      59.885      74.869      88.495      98.621      103.28    
  101.22      92.399      78.234      61.487      45.732      34.520      17.260      21.837      34.520      52.452    
  71.743      88.461      99.543      103.37      99.907      90.422      76.982      61.863      47.074      34.092    
  23.799      16.404      11.358      8.0106      5.8284      4.4197      3.5193      2.9555      2.6194      2.4431    
  2.3884      2.4431      2.6194      2.9555      3.5193      4.4197      5.8284      8.0106      11.358      16.404    
  23.799      34.092      47.074      61.863      76.982      90.422      99.907      103.37      99.543      88.461    
  71.743      52.452      34.520      21.837      17.541      22.113      34.781      52.686      71.937      88.607    
  99.636      103.41      99.906      90.390      76.931      61.804      47.016      34.041      23.756      16.372    
  11.334      7.9956      5.8205      4.4172      3.5206      2.9594      2.6248      2.4492      2.3948      2.4492    
  2.6248      2.9594      3.5206      4.4172      5.8205      7.9956      11.334      16.372      23.756      34.041    
  47.016      61.804      76.931      90.390      99.906      103.41      99.636      88.607      71.937      52.686    
  34.781      22.113      22.113      26.507      38.670      55.828      74.206      89.998      100.25      103.42    
  99.495      89.754      76.227      61.142      46.460      33.620      23.472      16.197      11.235      7.9447    
  5.8004      4.4160      3.5308      2.9764      2.6457      2.4721      2.4182      2.4721      2.6457      2.9764    
  3.5308      4.4160      5.8004      7.9447      11.235      16.197      23.472      33.620      46.460      61.142    
  76.227      89.754      99.495      103.42      100.25      89.998      74.206      55.828      38.670      26.507    
  34.781      38.670      49.405      64.450      80.363      93.682      101.75      103.21      98.148      87.802    
  74.112      59.175      44.824      32.388      22.644      15.688      10.945      7.7972      5.7424      4.4132    
  3.5615      3.0271      2.7079      2.5400      2.4880      2.5400      2.7079      3.0271      3.5615      4.4132    
  5.7424      7.7972      10.945      15.688      22.644      32.388      44.824      59.175      74.112      87.802    