unknown system                          
   1.00000000000000     
     4.192000    0.000000    0.000000
     0.000000    4.192000    0.000000
     0.000000    0.000000    4.192000
   Ba   Zr   O 
     1     1     2
Direct
  0.000000  0.000000  0.000000
  0.500000  0.500000  0.500000
  0.500000  0.000000  0.500000
  0.000000  0.500000  0.500000
 
   48   48   48
 0.12499005366E+02 0.17260145074E+02 0.30463028679E+02 0.49165251238E+02 0.69356345351E+02
 0.86980073813E+02 0.98867404571E+02 0.10332891425E+03 0.10029566855E+03 0.91048397140E+02
 0.77685812408E+02 0.62528824596E+02 0.47634633807E+02 0.34518778825E+02 0.24088111226E+02
 0.16582397736E+02 0.11459280221E+02 0.80621917276E+01 0.58487468497E+01 0.44208808211E+01
 0.35088947335E+01 0.29383417664E+01 0.25984297693E+01 0.24201697248E+01 0.23649391802E+01
 0.24201697248E+01 0.25984297693E+01 0.29383417664E+01 0.35088947335E+01 0.44208808211E+01
 0.58487468497E+01 0.80621917276E+01 0.11459280221E+02 0.16582397736E+02 0.24088111226E+02
 0.34518778825E+02 0.47634633807E+02 0.62528824596E+02 0.77685812408E+02 0.91048397140E+02
 0.10029566855E+03 0.10332891425E+03 0.98867404571E+02 0.86980073813E+02 0.69356345351E+02
 0.49165251238E+02 0.30463028679E+02 0.17260145074E+02 0.17260145074E+02 0.21837416816E+02
 0.34520160461E+02 0.52452209908E+02 0.71742615341E+02 0.88460501093E+02 0.99543069490E+02
 0.10337159935E+03 0.99906760580E+02 0.90421952205E+02 0.76982379100E+02 0.61862725574E+02
 0.47073646659E+02 0.34092324243E+02 0.23798843968E+02 0.16404438510E+02 0.11357790443E+02
 0.80105713725E+01 0.58284416903E+01 0.44197418392E+01 0.35192775686E+01 0.29555108573E+01
 0.26194256021E+01 0.24430822547E+01 0.23884289460E+01 0.24430822547E+01 0.26194256021E+01
 0.29555108573E+01 0.35192775686E+01 0.44197418392E+01 0.58284416903E+01 0.80105713725E+01
 0.11357790443E+02 0.16404438510E+02 0.23798843968E+02 0.34092324243E+02 0.47073646659E+02
 0.61862725574E+02 0.76982379100E+02 0.90421952205E+02 0.99906760580E+02 0.10337159935E+03
 0.99543069490E+02 0.88460501093E+02 0.71742615341E+02 0.52452209908E+02 0.34520160461E+02
 0.21837416816E+02 0.30463028679E+02 0.34520160461E+02 0.45731858319E+02 0.61486965692E+02
 0.78234176513E+02 0.92398914987E+02 0.10122018627E+03 0.10327964408E+03 0.98620870726E+02
 0.88494614203E+02 0.74868830492E+02 0.59885125223E+02 0.45420835223E+02 0.32843771274E+02
 0.22957431192E+02 0.15887458058E+02 0.11063233422E+02 0.78609481003E+01 0.57699014795E+01
 0.44171093087E+01 0.35504224827E+01 0.30066785031E+01 0.26819614427E+01 0.25113475117E+01
 0.24584265599E+01 0.25113475117E+01 0.26819614427E+01 0.30066785031E+01 0.35504224827E+01
 0.44171093087E+01 0.57699014795E+01 0.78609481003E+01 0.11063233422E+02 0.15887458058E+02
 0.22957431192E+02 0.32843771274E+02 0.45420835223E+02 0.59885125223E+02 0.74868830492E+02
 0.88494614203E+02 0.98620870726E+02 0.10327964408E+03 0.10122018627E+03 0.92398914987E+02
 0.78234176513E+02 0.61486965692E+02 0.45731858319E+02 0.34520160461E+02 0.49165251238E+02
 0.52452209908E+02 0.61486965692E+02 0.74024651331E+02 0.87021923002E+02 0.97437091418E+02
 0.10295992460E+03 0.10246963949E+03 0.96129655363E+02 0.85150990073E+02 0.71349867994E+02
 0.56663692321E+02 0.42767329319E+02 0.30863969923E+02 0.21638840079E+02 0.15079204127E+02
 0.10603562333E+02 0.76281566039E+01 0.56799765278E+01 0.44153849344E+01 0.36024824418E+01
 0.30909845725E+01 0.27847908763E+01 0.26236102364E+01 0.25735605170E+01 0.26236102364E+01
 0.27847908763E+01 0.30909845725E+01 0.36024824418E+01 0.44153849344E+01 0.56799765278E+01
 0.76281566039E+01 0.10603562333E+02 0.15079204127E+02 0.21638840079E+02 0.30863969923E+02
 0.42767329319E+02 0.56663692321E+02 0.71349867994E+02 0.85150990073E+02 0.96129655363E+02
 0.10246963949E+03 0.10295992460E+03 0.97437091418E+02 0.87021923002E+02 0.74024651331E+02
 0.61486965692E+02 0.52452209908E+02 0.69356345351E+02 0.71742615341E+02 0.78234176513E+02
 0.87021923002E+02 0.95666939778E+02 0.10176122341E+03 0.10352883990E+03 0.10019785871E+03
 0.92065324462E+02 0.80283292918E+02 0.66475542045E+02 0.52327093229E+02 0.39266478277E+02
 0.28299242163E+02 0.19955291925E+02 0.14050506480E+02 0.10020149742E+02 0.73343677691E+01
 0.55692495800E+01 0.44186442673E+01 0.36761233466E+01 0.32074342500E+01 0.29261884734E+01
 0.27778759408E+01 0.27317747411E+01 0.27778759408E+01 0.29261884734E+01 0.32074342500E+01
 0.36761233466E+01 0.44186442673E+01 0.55692495800E+01 0.73343677691E+01 0.10020149742E+02
 0.14050506480E+02 0.19955291925E+02 0.28299242163E+02 0.39266478277E+02 0.52327093229E+02
 0.66475542045E+02 0.80283292918E+02 0.92065324462E+02 0.10019785871E+03 0.10352883990E+03
 0.10176122341E+03 0.95666939778E+02 0.87021923002E+02 0.78234176513E+02 0.71742615341E+02
 0.86980073813E+02 0.88460501093E+02 0.92398914987E+02 0.97437091418E+02 0.10176122341E+03
 0.10361726315E+03 0.10177702684E+03 0.95819356797E+02 0.86164124041E+02 0.73883902582E+02
 0.60385664659E+02 0.47079992049E+02 0.35133178204E+02 0.25343907195E+02 0.18040799287E+02
 0.12885081784E+02 0.93619022831E+01 0.70062184952E+01 0.54509921958E+01 0.44325343990E+01
 0.37728200926E+01 0.33553234779E+01 0.31043986819E+01 0.29719530861E+01 0.29307653989E+01
 0.29719530861E+01 0.31043986819E+01 0.33553234779E+01 0.37728200926E+01 0.44325343990E+01
 0.54509921958E+01 0.70062184952E+01 0.93619022831E+01 0.12885081784E+02 0.18040799287E+02
 0.25343907195E+02 0.35133178204E+02 0.47079992049E+02 0.60385664659E+02 0.73883902582E+02
 0.86164124041E+02 0.95819356797E+02 0.10177702684E+03 0.10361726315E+03 0.10176122341E+03
 0.97437091418E+02 0.92398914987E+02 0.88460501093E+02 0.98867404571E+02 0.99543069490E+02
 0.10122018627E+03 0.10295992460E+03 0.10352883990E+03 0.10177702684E+03 0.96976199530E+02
 0.89014914145E+02 0.78404683878E+02 0.66119095137E+02 0.53340884865E+02 0.41209157632E+02
 0.30637517207E+02 0.22223444386E+02 0.16034613112E+02 0.11669136066E+02 0.86794085537E+01
 0.66718887707E+01 0.53399247596E+01 0.44639190688E+01 0.38949457659E+01 0.35345449533E+01
 0.33180363538E+01 0.32038828336E+01 0.31684148309E+01 0.32038828336E+01 0.33180363538E+01
 0.35345449533E+01 0.38949457659E+01 0.44639190688E+01 0.53399247596E+01 0.66718887707E+01
 0.86794085537E+01 0.11669136066E+02 0.16034613112E+02 0.22223444386E+02 0.30637517207E+02
 0.41209157632E+02 0.53340884865E+02 0.66119095137E+02 0.78404683878E+02 0.89014914145E+02
 0.96976199530E+02 0.10177702684E+03 0.10352883990E+03 0.10295992460E+03 0.10122018627E+03
 0.99543069490E+02 0.10332891425E+03 0.10337159935E+03 0.10327964408E+03 0.10246963949E+03
 0.10019785871E+03 0.95819356797E+02 0.89014914145E+02 0.79912633714E+02 0.69072605153E+02
 0.57354168670E+02 0.45723898400E+02 0.35072521066E+02 0.26089273172E+02 0.19144303275E+02
 0.14065783357E+02 0.10482075338E+02 0.80197087142E+01 0.63583043006E+01 0.52508041699E+01
 0.45202585415E+01 0.40456071832E+01 0.37456558230E+01 0.35662307288E+01 0.34720793099E+01
 0.34429204136E+01 0.34720793099E+01 0.35662307288E+01 0.37456558230E+01 0.40456071832E+01
 0.45202585415E+01 0.52508041699E+01 0.63583043006E+01 0.80197087142E+01 0.10482075338E+02
 0.14065783357E+02 0.19144303275E+02 0.26089273172E+02 0.35072521066E+02 0.45723898400E+02
 0.57354168670E+02 0.69072605153E+02 0.79912633714E+02 0.89014914145E+02 0.95819356797E+02
 0.10019785871E+03 0.10246963949E+03 0.10327964408E+03 0.10337159935E+03 0.10029566855E+03
 0.99906760580E+02 0.98620870726E+02 0.96129655363E+02 0.92065324462E+02 0.86164124041E+02
 0.78404683878E+02 0.69072605153E+02 0.58731838239E+02 0.48119346820E+02 0.38005746421E+02
 0.29069121722E+02 0.21800245690E+02 0.16274244143E+02 0.12240447348E+02 0.93890739685E+01
 0.74219752879E+01 0.60885818793E+01 0.51969006633E+01 0.46087310680E+01 0.42281651869E+01
 0.39896077468E+01 0.38484332297E+01 0.37751501623E+01 0.37526135087E+01 0.37751501623E+01
 0.38484332297E+01 0.39896077468E+01 0.42281651869E+01 0.46087310680E+01 0.51969006633E+01
 0.60885818793E+01 0.74219752879E+01 0.93890739685E+01 0.12240447348E+02 0.16274244143E+02
 0.21800245690E+02 0.29069121722E+02 0.38005746421E+02 0.48119346820E+02 0.58731838239E+02
 0.69072605153E+02 0.78404683878E+02 0.86164124041E+02 0.92065324462E+02 0.96129655363E+02
 0.98620870726E+02 0.99906760580E+02 0.91048397140E+02 0.90421952205E+02 0.88494614203E+02
 0.85150990073E+02 0.80283292918E+02 0.73883902582E+02 0.66119095137E+02 0.57354168670E+02
 0.48119346820E+02 0.39029415357E+02 0.30686408434E+02 0.23593724532E+02 0.17980616324E+02
 0.13733330324E+02 0.10633373045E+02 0.84362205976E+01 0.69145202358E+01 0.58800201449E+01
 0.51885657953E+01 0.47351782046E+01 0.44454426616E+01 0.42671564972E+01 0.41640005319E+01
 0.41116143485E+01 0.40957302880E+01 0.41116143485E+01 0.41640005319E+01 0.42671564972E+01
 0.44454426616E+01 0.47351782046E+01 0.51885657953E+01 0.58800201449E+01 0.69145202358E+01
 0.84362205976E+01 0.10633373045E+02 0.13733330324E+02 0.17980616324E+02 0.23593724532E+02
 0.30686408434E+02 0.39029415357E+02 0.48119346820E+02 0.57354168670E+02 0.66119095137E+02
 0.73883902582E+02 0.80283292918E+02 0.85150990073E+02 0.88494614203E+02 0.90421952205E+02
 0.77685812408E+02 0.76982379100E+02 0.74868830492E+02 0.71349867994E+02 0.66475542045E+02
 0.60385664659E+02 0.53340884865E+02 0.45723898400E+02 0.38005746421E+02 0.30686408434E+02
 0.24227591626E+02 0.18912501909E+02 0.14739278804E+02 0.11587607762E+02 0.92850330120E+01
 0.76488865996E+01 0.65135756247E+01 0.57430082036E+01 0.52322040567E+01 0.49031419720E+01
 0.46988710486E+01 0.45781927803E+01 0.45117662141E+01 0.44796884577E+01 0.44702848640E+01
 0.44796884577E+01 0.45117662141E+01 0.45781927803E+01 0.46988710486E+01 0.49031419720E+01
 0.52322040567E+01 0.57430082036E+01 0.65135756247E+01 0.76488865996E+01 0.92850330120E+01
 0.11587607762E+02 0.14739278804E+02 0.18912501909E+02 0.24227591626E+02 0.30686408434E+02
 0.38005746421E+02 0.45723898400E+02 0.53340884865E+02 0.60385664659E+02 0.66475542045E+02
 0.71349867994E+02 0.74868830492E+02 0.76982379100E+02 0.62528824596E+02 0.61862725574E+02
 0.59885125223E+02 0.56663692321E+02 0.52327093229E+02 0.47079992049E+02 0.41209157632E+02
 0.35072521066E+02 0.29069121722E+02 0.23593724532E+02 0.18912501909E+02 0.15094654344E+02
 0.12107062569E+02 0.98526099285E+01 0.82044994461E+01 0.70334434440E+01 0.62239929342E+01
 0.56810511970E+01 0.53299247170E+01 0.51133605498E+01 0.49879861367E+01 0.49213386327E+01
 0.48897731275E+01 0.48771276376E+01 0.48739507999E+01 0.48771276376E+01 0.48897731275E+01
 0.49213386327E+01 0.49879861367E+01 0.51133605498E+01 0.53299247170E+01 0.56810511970E+01
 0.62239929342E+01 0.70334434440E+01 0.82044994461E+01 0.98526099285E+01 0.12107062569E+02
 0.15094654344E+02 0.18912501909E+02 0.23593724532E+02 0.29069121722E+02 0.35072521066E+02
 0.41209157632E+02 0.47079992049E+02 0.52327093229E+02 0.56663692321E+02 0.59885125223E+02
 0.61862725574E+02 0.47634633807E+02 0.47073646659E+02 0.45420835223E+02 0.42767329319E+02
 0.39266478277E+02 0.35133178204E+02 0.30637517207E+02 0.26089273172E+02 0.21800245690E+02
 0.17980616324E+02 0.14739278804E+02 0.12107062569E+02 0.10052497217E+02 0.85048719451E+01
 0.73769190807E+01 0.65816309121E+01 0.60415335761E+01 0.56918200059E+01 0.54799410890E+01
 0.53638914019E+01 0.53104671140E+01 0.52939491628E+01 0.52952076760E+01 0.53010746588E+01
 0.53038701776E+01 0.53010746588E+01 0.52952076760E+01 0.52939491628E+01 0.53104671140E+01
 0.53638914019E+01 0.54799410890E+01 0.56918200059E+01 0.60415335761E+01 0.65816309121E+01
 0.73769190807E+01 0.85048719451E+01 0.10052497217E+02 0.12107062569E+02 0.14739278804E+02
 0.17980616324E+02 0.21800245690E+02 0.26089273172E+02 0.30637517207E+02 0.35133178204E+02
 0.39266478277E+02 0.42767329319E+02 0.45420835223E+02 0.47073646659E+02 0.34518778825E+02
 0.34092324243E+02 0.32843771274E+02 0.30863969923E+02 0.28299242163E+02 0.25343907195E+02
 0.22223444386E+02 0.19144303275E+02 0.16274244143E+02 0.13733330324E+02 0.11587607762E+02
 0.98526099285E+01 0.85048719451E+01 0.74972149714E+01 0.67730047824E+01 0.62761258972E+01
 0.59559757200E+01 0.57688224270E+01 0.56774770780E+01 0.56506488642E+01 0.56624865549E+01
 0.56923108772E+01 0.57244289899E+01 0.57479377024E+01 0.57564691911E+01 0.57479377024E+01
 0.57244289899E+01 0.56923108772E+01 0.56624865549E+01 0.56506488642E+01 0.56774770780E+01
 0.57688224270E+01 0.59559757200E+01 0.62761258972E+01 0.67730047824E+01 0.74972149714E+01
 0.85048719451E+01 0.98526099285E+01 0.11587607762E+02 0.13733330324E+02 0.16274244143E+02
 0.19144303275E+02 0.22223444386E+02 0.25343907195E+02 0.28299242163E+02 0.30863969923E+02
 0.32843771274E+02 0.34092324243E+02 0.24088111226E+02 0.23798843968E+02 0.22957431192E+02
 0.21638840079E+02 0.19955291925E+02 0.18040799287E+02 0.16034613112E+02 0.14065783357E+02
 0.12240447348E+02 0.10633373045E+02 0.92850330120E+01 0.82044994461E+01 0.73769190807E+01
 0.67730047824E+01 0.63576348250E+01 0.60955700942E+01 0.59540005303E+01 0.59030537016E+01
 0.59157116388E+01 0.59679249001E+01 0.60389506845E+01 0.61116869785E+01 0.61728895811E+01
 0.62132470720E+01 0.62272963392E+01 0.62132470720E+01 0.61728895811E+01 0.61116869785E+01
 0.60389506845E+01 0.59679249001E+01 0.59157116388E+01 0.59030537016E+01 0.59540005303E+01
 0.60955700942E+01 0.63576348250E+01 0.67730047824E+01 0.73769190807E+01 0.82044994461E+01
 0.92850330120E+01 0.10633373045E+02 0.12240447348E+02 0.14065783357E+02 0.16034613112E+02
 0.18040799287E+02 0.19955291925E+02 0.21638840079E+02 0.22957431192E+02 0.23798843968E+02
 0.16582397736E+02 0.16404438510E+02 0.15887458058E+02 0.15079204127E+02 0.14050506480E+02
 0.12885081784E+02 0.11669136066E+02 0.10482075338E+02 0.93890739685E+01 0.84362205976E+01
 0.76488865996E+01 0.70334434440E+01 0.65816309121E+01 0.62761258972E+01 0.60955700942E+01
 0.60177834304E+01 0.60210038061E+01 0.60840296098E+01 0.61863320185E+01 0.63085843139E+01
 0.64334096687E+01 0.65460387852E+01 0.66347804825E+01 0.66913008100E+01 0.67106792465E+01
 0.66913008100E+01 0.66347804825E+01 0.65460387852E+01 0.64334096687E+01 0.63085843139E+01
 0.61863320185E+01 0.60840296098E+01 0.60210038061E+01 0.60177834304E+01 0.60955700942E+01
 0.62761258972E+01 0.65816309121E+01 0.70334434440E+01 0.76488865996E+01 0.84362205976E+01
 0.93890739685E+01 0.10482075338E+02 0.11669136066E+02 0.12885081784E+02 0.14050506480E+02
 0.15079204127E+02 0.15887458058E+02 0.16404438510E+02 0.11459280221E+02 0.11357790443E+02
 0.11063233422E+02 0.10603562333E+02 0.10020149742E+02 0.93619022831E+01 0.86794085537E+01
 0.80197087142E+01 0.74219752879E+01 0.69145202358E+01 0.65135756247E+01 0.62239929342E+01
 0.60415335761E+01 0.59559757200E+01 0.59540005303E+01 0.60210038061E+01 0.61416880012E+01
 0.63000566429E+01 0.64795957723E+01 0.66639314919E+01 0.68377294334E+01 0.69875327866E+01
 0.71024291549E+01 0.71745087190E+01 0.71990538019E+01 0.71745087190E+01 0.71024291549E+01
 0.69875327866E+01 0.68377294334E+01 0.66639314919E+01 0.64795957723E+01 0.63000566429E+01
 0.61416880012E+01 0.60210038061E+01 0.59540005303E+01 0.59559757200E+01 0.60415335761E+01
 0.62239929342E+01 0.65135756247E+01 0.69145202358E+01 0.74219752879E+01 0.80197087142E+01
 0.86794085537E+01 0.93619022831E+01 0.10020149742E+02 0.10603562333E+02 0.11063233422E+02
 0.11357790443E+02 0.80621917276E+01 0.80105713725E+01 0.78609481003E+01 0.76281566039E+01
 0.73343677691E+01 0.70062184952E+01 0.66718887707E+01 0.63583043006E+01 0.60885818793E+01
 0.58800201449E+01 0.57430082036E+01 0.56810511970E+01 0.56918200059E+01 0.57688224270E+01
 0.59030537016E+01 0.60840296098E+01 0.63000566429E+01 0.65381512469E+01 0.67841824960E+01
 0.70234825840E+01 0.72417666255E+01 0.74260959985E+01 0.75657208588E+01 0.76527002863E+01
 0.76822266983E+01 0.76527002863E+01 0.75657208588E+01 0.74260959985E+01 0.72417666255E+01
 0.70234825840E+01 0.67841824960E+01 0.65381512469E+01 0.63000566429E+01 0.60840296098E+01
 0.59030537016E+01 0.57688224270E+01 0.56918200059E+01 0.56810511970E+01 0.57430082036E+01
 0.58800201449E+01 0.60885818793E+01 0.63583043006E+01 0.66718887707E+01 0.70062184952E+01
 0.73343677691E+01 0.76281566039E+01 0.78609481003E+01 0.80105713725E+01 0.58487468497E+01
 0.58284416903E+01 0.57699014795E+01 0.56799765278E+01 0.55692495800E+01 0.54509921958E+01
 0.53399247596E+01 0.52508041699E+01 0.51969006633E+01 0.51885657953E+01 0.52322040567E+01
 0.53299247170E+01 0.54799410890E+01 0.56774770780E+01 0.59157116388E+01 0.61863320185E+01
 0.64795957723E+01 0.67841824960E+01 0.70872515791E+01 0.73749458979E+01 0.76332948962E+01
 0.78492943599E+01 0.80119188635E+01 0.81128878041E+01 0.81471138954E+01 0.81128878041E+01
 0.80119188635E+01 0.78492943599E+01 0.76332948962E+01 0.73749458979E+01 0.70872515791E+01
 0.67841824960E+01 0.64795957723E+01 0.61863320185E+01 0.59157116388E+01 0.56774770780E+01
 0.54799410890E+01 0.53299247170E+01 0.52322040567E+01 0.51885657953E+01 0.51969006633E+01
 0.52508041699E+01 0.53399247596E+01 0.54509921958E+01 0.55692495800E+01 0.56799765278E+01
 0.57699014795E+01 0.58284416903E+01 0.44208808211E+01 0.44197418392E+01 0.44171093087E+01
 0.44153849344E+01 0.44186442673E+01 0.44325343990E+01 0.44639190688E+01 0.45202585415E+01
 0.46087310680E+01 0.47351782046E+01 0.49031419720E+01 0.51133605498E+01 0.53638914019E+01
 0.56506488642E+01 0.59679249001E+01 0.63085843139E+01 0.66639314919E+01 0.70234825840E+01
 0.73749458979E+01 0.77046397163E+01 0.79983934142E+01 0.82427487017E+01 0.84261414999E+01
 0.85398026511E+01 0.85783011969E+01 0.85398026511E+01 0.84261414999E+01 0.82427487017E+01
 0.79983934142E+01 0.77046397163E+01 0.73749458979E+01 0.70234825840E+01 0.66639314919E+01
 0.63085843139E+01 0.59679249001E+01 0.56506488642E+01 0.53638914019E+01 0.51133605498E+01
 0.49031419720E+01 0.47351782046E+01 0.46087310680E+01 0.45202585415E+01 0.44639190688E+01
 0.44325343990E+01 0.44186442673E+01 0.44153849344E+01 0.44171093087E+01 0.44197418392E+01
 0.35088947335E+01 0.35192775686E+01 0.35504224827E+01 0.36024824418E+01 0.36761233466E+01
 0.37728200926E+01 0.38949457659E+01 0.40456071832E+01 0.42281651869E+01 0.44454426616E+01
 0.46988710486E+01 0.49879861367E+01 0.53104671140E+01 0.56624865549E+01 0.60389506845E+01
 0.64334096687E+01 0.68377294334E+01 0.72417666255E+01 0.76332948962E+01 0.79983934142E+01
 0.83223838234E+01 0.85911536054E+01 0.87924968645E+01 0.89171375257E+01 0.89593309312E+01
 0.89171375257E+01 0.87924968645E+01 0.85911536054E+01 0.83223838234E+01 0.79983934142E+01
 0.76332948962E+01 0.72417666255E+01 0.68377294334E+01 0.64334096687E+01 0.60389506845E+01
 0.56624865549E+01 0.53104671140E+01 0.49879861367E+01 0.46988710486E+01 0.44454426616E+01
 0.42281651869E+01 0.40456071832E+01 0.38949457659E+01 0.37728200926E+01 0.36761233466E+01
 0.36024824418E+01 0.35504224827E+01 0.35192775686E+01 0.29383417664E+01 0.29555108573E+01
 0.30066785031E+01 0.30909845725E+01 0.32074342500E+01 0.33553234779E+01 0.35345449533E+01
 0.37456558230E+01 0.39896077468E+01 0.42671564972E+01 0.45781927803E+01 0.49213386327E+01
 0.52939491628E+01 0.56923108772E+01 0.61116869785E+01 0.65460387852E+01 0.69875327866E+01
 0.74260959985E+01 0.78492943599E+01 0.82427487017E+01 0.85911536054E+01 0.88797160730E+01
 0.90956229756E+01 0.92291608037E+01 0.92743442286E+01 0.92291608037E+01 0.90956229756E+01
 0.88797160730E+01 0.85911536054E+01 0.82427487017E+01 0.78492943599E+01 0.74260959985E+01
 0.69875327866E+01 0.65460387852E+01 0.61116869785E+01 0.56923108772E+01 0.52939491628E+01
 0.49213386327E+01 0.45781927803E+01 0.42671564972E+01 0.39896077468E+01 0.37456558230E+01
 0.35345449533E+01 0.33553234779E+01 0.32074342500E+01 0.30909845725E+01 0.30066785031E+01
 0.29555108573E+01 0.25984297693E+01 0.26194256021E+01 0.26819614427E+01 0.27847908763E+01
 0.29261884734E+01 0.31043986819E+01 0.33180363538E+01 0.35662307288E+01 0.38484332297E+01
 0.41640005319E+01 0.45117662141E+01 0.48897731275E+01 0.52952076760E+01 0.57244289899E+01
 0.61728895811E+01 0.66347804825E+01 0.71024291549E+01 0.75657208588E+01 0.80119188635E+01
 0.84261414999E+01 0.87924968645E+01 0.90956229756E+01 0.93222346210E+01 0.94622997969E+01
 0.95096735855E+01 0.94622997969E+01 0.93222346210E+01 0.90956229756E+01 0.87924968645E+01
 0.84261414999E+01 0.80119188635E+01 0.75657208588E+01 0.71024291549E+01 0.66347804825E+01
 0.61728895811E+01 0.57244289899E+01 0.52952076760E+01 0.48897731275E+01 0.45117662141E+01
 0.41640005319E+01 0.38484332297E+01 0.35662307288E+01 0.33180363538E+01 0.31043986819E+01
 0.29261884734E+01 0.27847908763E+01 0.26819614427E+01 0.26194256021E+01 0.24201697248E+01
 0.24430822547E+01 0.25113475117E+01 0.26236102364E+01 0.27778759408E+01 0.29719530861E+01
 0.32038828336E+01 0.34720793099E+01 0.37751501623E+01 0.41116143485E+01 0.44796884577E+01
 0.48771276376E+01 0.53010746588E+01 0.57479377024E+01 0.62132470720E+01 0.66913008100E+01
 0.71745087190E+01 0.76527002863E+01 0.81128878041E+01 0.85398026511E+01 0.89171375257E+01
 0.92291608037E+01 0.94622997969E+01 0.96063378327E+01 0.96550432290E+01 0.96063378327E+01
 0.94622997969E+01 0.92291608037E+01 0.89171375257E+01 0.85398026511E+01 0.81128878041E+01
 0.76527002863E+01 0.71745087190E+01 0.66913008100E+01 0.62132470720E+01 0.57479377024E+01
 0.53010746588E+01 0.48771276376E+01 0.44796884577E+01 0.41116143485E+01 0.37751501623E+01
 0.34720793099E+01 0.32038828336E+01 0.29719530861E+01 0.27778759408E+01 0.26236102364E+01
 0.25113475117E+01 0.24430822547E+01 0.23649391802E+01 0.23884289460E+01 0.24584265599E+01
 0.25735605170E+01 0.27317747411E+01 0.29307653989E+01 0.31684148309E+01 0.34429204136E+01
 0.37526135087E+01 0.40957302880E+01 0.44702848640E+01 0.48739507999E+01 0.53038701776E+01
 0.57564691911E+01 0.62272963392E+01 0.67106792465E+01 0.71990538019E+01 0.76822266983E+01
 0.81471138954E+01 0.85783011969E+01 0.89593309312E+01 0.92743442286E+01 0.95096735855E+01
 0.96550432290E+01 0.97041946565E+01 0.96550432290E+01 0.95096735855E+01 0.92743442286E+01
 0.89593309312E+01 0.85783011969E+01 0.81471138954E+01 0.76822266983E+01 0.71990538019E+01
 0.67106792465E+01 0.62272963392E+01 0.57564691911E+01 0.53038701776E+01 0.48739507999E+01
 0.44702848640E+01 0.40957302880E+01 0.37526135087E+01 0.34429204136E+01 0.31684148309E+01
 0.29307653989E+01 0.27317747411E+01 0.25735605170E+01 0.24584265599E+01 0.23884289460E+01
 0.24201697248E+01 0.24430822547E+01 0.25113475117E+01 0.26236102364E+01 0.27778759408E+01
 0.29719530861E+01 0.32038828336E+01 0.34720793099E+01 0.37751501623E+01 0.41116143485E+01
 0.44796884577E+01 0.48771276376E+01 0.53010746588E+01 0.57479377024E+01 0.62132470720E+01
 0.66913008100E+01 0.71745087190E+01 0.76527002863E+01 0.81128878041E+01 0.85398026511E+01
 0.89171375257E+01 0.92291608037E+01 0.94622997969E+01 0.96063378327E+01 0.96550432290E+01
 0.96063378327E+01 0.94622997969E+01 0.92291608037E+01 0.89171375257E+01 0.85398026511E+01
 0.81128878041E+01 0.76527002863E+01 0.71745087190E+01 0.66913008100E+01 0.62132470720E+01
 0.57479377024E+01 0.53010746588E+01 0.48771276376E+01 0.44796884577E+01 0.41116143485E+01
 0.37751501623E+01 0.34720793099E+01 0.32038828336E+01 0.29719530861E+01 0.27778759408E+01
 0.26236102364E+01 0.25113475117E+01 0.24430822547E+01 0.25984297693E+01 0.26194256021E+01
 0.26819614427E+01 0.27847908763E+01 0.29261884734E+01 0.31043986819E+01 0.33180363538E+01
 0.35662307288E+01 0.38484332297E+01 0.41640005319E+01 0.45117662141E+01 0.48897731275E+01
 0.52952076760E+01 0.57244289899E+01 0.61728895811E+01 0.66347804825E+01 0.71024291549E+01
 0.75657208588E+01 0.80119188635E+01 0.84261414999E+01 0.87924968645E+01 0.90956229756E+01
 0.93222346210E+01 0.94622997969E+01 0.95096735855E+01 0.94622997969E+01 0.93222346210E+01
 0.90956229756E+01 0.87924968645E+01 0.84261414999E+01 0.80119188635E+01 0.75657208588E+01
 0.71024291549E+01 0.66347804825E+01 0.61728895811E+01 0.57244289899E+01 0.52952076760E+01
 0.48897731275E+01 0.45117662141E+01 0.41640005319E+01 0.38484332297E+01 0.35662307288E+01
 0.33180363538E+01 0.31043986819E+01 0.29261884734E+01 0.27847908763E+01 0.26819614427E+01
 0.26194256021E+01 0.29383417664E+01 0.29555108573E+01 0.30066785031E+01 0.30909845725E+01
 0.32074342500E+01 0.33553234779E+01 0.35345449533E+01 0.37456558230E+01 0.39896077468E+01
 0.42671564972E+01 0.45781927803E+01 0.49213386327E+01 0.52939491628E+01 0.56923108772E+01
 0.61116869785E+01 0.65460387852E+01 0.69875327866E+01 0.74260959985E+01 0.78492943599E+01
 0.82427487017E+01 0.85911536054E+01 0.88797160730E+01 0.90956229756E+01 0.92291608037E+01
 0.92743442286E+01 0.92291608037E+01 0.90956229756E+01 0.88797160730E+01 0.85911536054E+01
 0.82427487017E+01 0.78492943599E+01 0.74260959985E+01 0.69875327866E+01 0.65460387852E+01
 0.61116869785E+01 0.56923108772E+01 0.52939491628E+01 0.49213386327E+01 0.45781927803E+01
 0.42671564972E+01 0.39896077468E+01 0.37456558230E+01 0.35345449533E+01 0.33553234779E+01
 0.32074342500E+01 0.30909845725E+01 0.30066785031E+01 0.29555108573E+01 0.35088947335E+01
 0.35192775686E+01 0.35504224827E+01 0.36024824418E+01 0.36761233466E+01 0.37728200926E+01
 0.38949457659E+01 0.40456071832E+01 0.42281651869E+01 0.44454426616E+01 0.46988710486E+01
 0.49879861367E+01 0.53104671140E+01 0.56624865549E+01 0.60389506845E+01 0.64334096687E+01
 0.68377294334E+01 0.72417666255E+01 0.76332948962E+01 0.79983934142E+01 0.83223838234E+01
 0.85911536054E+01 0.87924968645E+01 0.89171375257E+01 0.89593309312E+01 0.89171375257E+01
 0.87924968645E+01 0.85911536054E+01 0.83223838234E+01 0.79983934142E+01 0.76332948962E+01
 0.72417666255E+01 0.68377294334E+01 0.64334096687E+01 0.60389506845E+01 0.56624865549E+01
 0.53104671140E+01 0.49879861367E+01 0.46988710486E+01 0.44454426616E+01 0.42281651869E+01
 0.40456071832E+01 0.38949457659E+01 0.37728200926E+01 0.36761233466E+01 0.36024824418E+01
 0.35504224827E+01 0.35192775686E+01 0.44208808211E+01 0.44197418392E+01 0.44171093087E+01
 0.44153849344E+01 0.44186442673E+01 0.44325343990E+01 0.44639190688E+01 0.45202585415E+01
 0.46087310680E+01 0.47351782046E+01 0.49031419720E+01 0.51133605498E+01 0.53638914019E+01
 0.56506488642E+01 0.59679249001E+01 0.63085843139E+01 0.66639314919E+01 0.70234825840E+01
 0.73749458979E+01 0.77046397163E+01 0.79983934142E+01 0.82427487017E+01 0.84261414999E+01
 0.85398026511E+01 0.85783011969E+01 0.85398026511E+01 0.84261414999E+01 0.82427487017E+01
 0.79983934142E+01 0.77046397163E+01 0.73749458979E+01 0.70234825840E+01 0.66639314919E+01
 0.63085843139E+01 0.59679249001E+01 0.56506488642E+01 0.53638914019E+01 0.51133605498E+01
 0.49031419720E+01 0.47351782046E+01 0.46087310680E+01 0.45202585415E+01 0.44639190688E+01
 0.44325343990E+01 0.44186442673E+01 0.44153849344E+01 0.44171093087E+01 0.44197418392E+01
 0.58487468497E+01 0.58284416903E+01 0.57699014795E+01 0.56799765278E+01 0.55692495800E+01
 0.54509921958E+01 0.53399247596E+01 0.52508041699E+01 0.51969006633E+01 0.51885657953E+01
 0.52322040567E+01 0.53299247170E+01 0.54799410890E+01 0.56774770780E+01 0.59157116388E+01
 0.61863320185E+01 0.64795957723E+01 0.67841824960E+01 0.70872515791E+01 0.73749458979E+01
 0.76332948962E+01 0.78492943599E+01 0.80119188635E+01 0.81128878041E+01 0.81471138954E+01
 0.81128878041E+01 0.80119188635E+01 0.78492943599E+01 0.76332948962E+01 0.73749458979E+01
 0.70872515791E+01 0.67841824960E+01 0.64795957723E+01 0.61863320185E+01 0.59157116388E+01
 0.56774770780E+01 0.54799410890E+01 0.53299247170E+01 0.52322040567E+01 0.51885657953E+01
 0.51969006633E+01 0.52508041699E+01 0.53399247596E+01 0.54509921958E+01 0.55692495800E+01
 0.56799765278E+01 0.57699014795E+01 0.58284416903E+01 0.80621917276E+01 0.80105713725E+01
 0.78609481003E+01 0.76281566039E+01 0.73343677691E+01 0.70062184952E+01 0.66718887707E+01
 0.63583043007E+01 0.60885818793E+01 0.58800201449E+01 0.57430082036E+01 0.56810511970E+01
 0.56918200059E+01 0.57688224270E+01 0.59030537016E+01 0.60840296098E+01 0.63000566429E+01
 0.65381512469E+01 0.67841824960E+01 0.70234825840E+01 0.72417666255E+01 0.74260959985E+01
 0.75657208588E+01 0.76527002863E+01 0.76822266983E+01 0.76527002863E+01 0.75657208588E+01
 0.74260959985E+01 0.72417666255E+01 0.70234825840E+01 0.67841824960E+01 0.65381512469E+01
 0.63000566429E+01 0.60840296098E+01 0.59030537016E+01 0.57688224270E+01 0.56918200059E+01
 0.56810511970E+01 0.57430082036E+01 0.58800201449E+01 0.60885818793E+01 0.63583043006E+01
 0.66718887707E+01 0.70062184952E+01 0.73343677691E+01 0.76281566039E+01 0.78609481003E+01
 0.80105713725E+01 0.11459280221E+02 0.11357790443E+02 0.11063233422E+02 0.10603562333E+02
 0.10020149742E+02 0.93619022831E+01 0.86794085537E+01 0.80197087142E+01 0.74219752879E+01
 0.69145202358E+01 0.65135756247E+01 0.62239929342E+01 0.60415335761E+01 0.59559757200E+01
 0.59540005303E+01 0.60210038061E+01 0.61416880012E+01 0.63000566429E+01 0.64795957723E+01
 0.66639314919E+01 0.68377294334E+01 0.69875327866E+01 0.71024291549E+01 0.71745087190E+01
 0.71990538019E+01 0.71745087190E+01 0.71024291549E+01 0.69875327866E+01 0.68377294334E+01
 0.66639314919E+01 0.64795957723E+01 0.63000566429E+01 0.61416880012E+01 0.60210038061E+01
 0.59540005303E+01 0.59559757200E+01 0.60415335761E+01 0.62239929342E+01 0.65135756247E+01
 0.69145202358E+01 0.74219752879E+01 0.80197087142E+01 0.86794085537E+01 0.93619022831E+01
 0.10020149742E+02 0.10603562333E+02 0.11063233422E+02 0.11357790443E+02 0.16582397736E+02
 0.16404438510E+02 0.15887458058E+02 0.15079204127E+02 0.14050506480E+02 0.12885081784E+02
 0.11669136066E+02 0.10482075338E+02 0.93890739685E+01 0.84362205976E+01 0.76488865996E+01
 0.70334434440E+01 0.65816309121E+01 0.62761258972E+01 0.60955700942E+01 0.60177834304E+01
 0.60210038061E+01 0.60840296098E+01 0.61863320185E+01 0.63085843139E+01 0.64334096687E+01
 0.65460387852E+01 0.66347804825E+01 0.66913008100E+01 0.67106792465E+01 0.66913008100E+01
 0.66347804825E+01 0.65460387852E+01 0.64334096687E+01 0.63085843139E+01 0.61863320185E+01
 0.60840296098E+01 0.60210038061E+01 0.60177834304E+01 0.60955700942E+01 0.62761258972E+01
 0.65816309121E+01 0.70334434440E+01 0.76488865996E+01 0.84362205976E+01 0.93890739685E+01