   4   4   0   0
  0.1841636E+02  0.4192000E-09  0.4192000E-09  0.4192000E-09  0.5000000E-15
  1.000000000000000E-004
  CAR 
 unknown system                          
     29.77230421    -49.55719950  301      4.37806130      1.00000000
    -49.557  0.0000E+00  0.0000E+00
    -49.293  0.0000E+00  0.0000E+00
    -49.028  0.0000E+00  0.0000E+00
    -48.764  0.0000E+00  0.0000E+00
    -48.499  0.0000E+00  0.0000E+00
    -48.235  0.0000E+00  0.0000E+00
    -47.971  0.0000E+00  0.0000E+00
    -47.706 -0.6863E-32 -0.1815E-32
    -47.442 -0.1210E-22 -0.3201E-23
    -47.177 -0.6268E-15 -0.1657E-15
    -46.913 -0.8982E-09 -0.2375E-09
    -46.648 -0.3621E-04 -0.9575E-05
    -46.384 -0.3438E-01 -0.9101E-02
    -46.120  0.3526E-01  0.2238E-03
    -45.855  0.6499E+01  0.1719E+01
    -45.591  0.1172E+01  0.2029E+01
    -45.326 -0.1080E+00  0.2000E+01
    -45.062 -0.3450E-03  0.2000E+01
    -44.797 -0.2321E-07  0.2000E+01
    -44.533 -0.4199E-13  0.2000E+01
    -44.269  0.0000E+00  0.2000E+01
    -44.004  0.0000E+00  0.2000E+01
    -43.740  0.0000E+00  0.2000E+01
    -43.475  0.0000E+00  0.2000E+01
    -43.211  0.0000E+00  0.2000E+01
    -42.946  0.0000E+00  0.2000E+01
    -42.682  0.0000E+00  0.2000E+01
    -42.418  0.0000E+00  0.2000E+01
    -42.153  0.0000E+00  0.2000E+01
    -41.889  0.0000E+00  0.2000E+01
    -41.624  0.0000E+00  0.2000E+01
    -41.360  0.0000E+00  0.2000E+01
    -41.095  0.0000E+00  0.2000E+01
    -40.831  0.0000E+00  0.2000E+01
    -40.567  0.0000E+00  0.2000E+01
    -40.302  0.0000E+00  0.2000E+01
    -40.038  0.0000E+00  0.2000E+01
    -39.773  0.0000E+00  0.2000E+01
    -39.509  0.0000E+00  0.2000E+01
    -39.244  0.0000E+00  0.2000E+01
    -38.980  0.0000E+00  0.2000E+01
    -38.716  0.0000E+00  0.2000E+01
    -38.451  0.0000E+00  0.2000E+01
    -38.187  0.0000E+00  0.2000E+01
    -37.922  0.0000E+00  0.2000E+01
    -37.658  0.0000E+00  0.2000E+01
    -37.393  0.0000E+00  0.2000E+01
    -37.129  0.0000E+00  0.2000E+01
    -36.864  0.0000E+00  0.2000E+01
    -36.600  0.0000E+00  0.2000E+01
    -36.336  0.0000E+00  0.2000E+01
    -36.071  0.0000E+00  0.2000E+01
    -35.807  0.0000E+00  0.2000E+01
    -35.542  0.0000E+00  0.2000E+01
    -35.278  0.0000E+00  0.2000E+01
    -35.013  0.0000E+00  0.2000E+01
    -34.749  0.0000E+00  0.2000E+01
    -34.485  0.0000E+00  0.2000E+01
    -34.220  0.0000E+00  0.2000E+01
    -33.956  0.0000E+00  0.2000E+01
    -33.691  0.0000E+00  0.2000E+01
    -33.427  0.0000E+00  0.2000E+01
    -33.162  0.0000E+00  0.2000E+01
    -32.898  0.0000E+00  0.2000E+01
    -32.634  0.0000E+00  0.2000E+01
    -32.369  0.0000E+00  0.2000E+01
    -32.105  0.0000E+00  0.2000E+01
    -31.840  0.0000E+00  0.2000E+01
    -31.576  0.0000E+00  0.2000E+01
    -31.311  0.0000E+00  0.2000E+01
    -31.047  0.0000E+00  0.2000E+01
    -30.783  0.0000E+00  0.2000E+01
    -30.518  0.0000E+00  0.2000E+01
    -30.254  0.0000E+00  0.2000E+01
    -29.989  0.0000E+00  0.2000E+01
    -29.725  0.0000E+00  0.2000E+01
    -29.460  0.0000E+00  0.2000E+01
    -29.196  0.0000E+00  0.2000E+01
    -28.932  0.0000E+00  0.2000E+01
    -28.667  0.0000E+00  0.2000E+01
    -28.403  0.0000E+00  0.2000E+01
    -28.138  0.0000E+00  0.2000E+01
    -27.874  0.0000E+00  0.2000E+01
    -27.609  0.0000E+00  0.2000E+01
    -27.345  0.0000E+00  0.2000E+01
    -27.081  0.0000E+00  0.2000E+01
    -26.816  0.0000E+00  0.2000E+01
    -26.552  0.0000E+00  0.2000E+01
    -26.287  0.0000E+00  0.2000E+01
    -26.023  0.0000E+00  0.2000E+01
    -25.758 -0.1689E-35  0.2000E+01
    -25.494 -0.1134E-25  0.2000E+01
    -25.229 -0.2243E-17  0.2000E+01
    -24.965 -0.1247E-10  0.2000E+01
    -24.701 -0.1987E-05  0.2000E+01
    -24.436 -0.8140E-02  0.1998E+01
    -24.172 -0.5338E+00  0.1857E+01
    -23.907  0.7821E+01  0.3925E+01
    -23.643  0.1483E+02  0.7847E+01
    -23.378  0.7010E+00  0.8032E+01
    -23.114 -0.1206E+00  0.8000E+01
    -22.850 -0.3678E-03  0.8000E+01
    -22.585 -0.3189E-02  0.7999E+01
    -22.321 -0.2393E+00  0.7936E+01
    -22.056  0.3578E+01  0.8882E+01
    -21.792  0.4496E+01  0.1007E+02
    -21.527 -0.2611E+00  0.1000E+02
    -21.263 -0.6241E-02  0.1000E+02
    -20.999 -0.1983E-05  0.1000E+02
    -20.734 -0.1596E-10  0.1000E+02
    -20.470  0.0000E+00  0.1000E+02
    -20.205  0.0000E+00  0.1000E+02
    -19.941  0.0000E+00  0.1000E+02
    -19.676  0.0000E+00  0.1000E+02
    -19.412  0.0000E+00  0.1000E+02
    -19.148  0.0000E+00  0.1000E+02
    -18.883  0.0000E+00  0.1000E+02
    -18.619  0.0000E+00  0.1000E+02
    -18.354  0.0000E+00  0.1000E+02
    -18.090  0.0000E+00  0.1000E+02
    -17.825  0.0000E+00  0.1000E+02
    -17.561  0.0000E+00  0.1000E+02
    -17.297  0.0000E+00  0.1000E+02
    -17.032  0.0000E+00  0.1000E+02
    -16.768  0.0000E+00  0.1000E+02
    -16.503  0.0000E+00  0.1000E+02
    -16.239  0.0000E+00  0.1000E+02
    -15.974  0.0000E+00  0.1000E+02
    -15.710  0.0000E+00  0.1000E+02
    -15.446  0.0000E+00  0.1000E+02
    -15.181  0.0000E+00  0.1000E+02
    -14.917  0.0000E+00  0.1000E+02
    -14.652  0.0000E+00  0.1000E+02
    -14.388  0.0000E+00  0.1000E+02
    -14.123  0.0000E+00  0.1000E+02
    -13.859  0.0000E+00  0.1000E+02
    -13.594  0.0000E+00  0.1000E+02
    -13.330 -0.2832E-30  0.1000E+02
    -13.066 -0.2808E-21  0.1000E+02
    -12.801 -0.7738E-14  0.1000E+02
    -12.537 -0.6510E-08  0.1000E+02
    -12.272 -0.1446E-03  0.1000E+02
    -12.008 -0.7158E-01  0.9981E+01
    -11.743  0.4857E+00  0.1011E+02
    -11.479  0.7890E+01  0.1220E+02
    -11.215  0.6875E+01  0.1401E+02
    -10.950 -0.1658E-01  0.1401E+02
    -10.686 -0.3482E-01  0.1400E+02
    -10.421 -0.3687E-04  0.1400E+02
    -10.157 -0.9214E-09  0.1400E+02
     -9.892  0.0000E+00  0.1400E+02
     -9.628  0.0000E+00  0.1400E+02
     -9.364  0.0000E+00  0.1400E+02
     -9.099  0.0000E+00  0.1400E+02
     -8.835 -0.9960E-28  0.1400E+02
     -8.570 -0.4326E-19  0.1400E+02
     -8.306 -0.5325E-12  0.1400E+02
     -8.041 -0.1898E-06  0.1400E+02
     -7.777 -0.1816E-02  0.1400E+02
     -7.513 -0.3624E+00  0.1390E+02
     -7.248  0.4200E+01  0.1501E+02
     -6.984  0.1840E+02  0.1988E+02
     -6.719  0.5879E+00  0.2003E+02
     -6.455 -0.1298E+00  0.2000E+02
     -6.190 -0.2762E-03  0.2000E+02
     -5.926 -0.1506E-07  0.2000E+02
     -5.662 -0.2351E-13  0.2000E+02
     -5.397  0.0000E+00  0.2000E+02
     -5.133  0.0000E+00  0.2000E+02
     -4.868  0.0000E+00  0.2000E+02
     -4.604  0.0000E+00  0.2000E+02
     -4.339  0.0000E+00  0.2000E+02
     -4.075  0.0000E+00  0.2000E+02
     -3.811  0.0000E+00  0.2000E+02
     -3.546  0.0000E+00  0.2000E+02
     -3.282  0.0000E+00  0.2000E+02
     -3.017  0.0000E+00  0.2000E+02
     -2.753  0.0000E+00  0.2000E+02
     -2.488  0.0000E+00  0.2000E+02
     -2.224  0.0000E+00  0.2000E+02
     -1.959  0.0000E+00  0.2000E+02
     -1.695  0.0000E+00  0.2000E+02
     -1.431  0.0000E+00  0.2000E+02
     -1.166  0.0000E+00  0.2000E+02
     -0.902  0.0000E+00  0.2000E+02
     -0.637  0.0000E+00  0.2000E+02
     -0.373  0.0000E+00  0.2000E+02
     -0.108  0.0000E+00  0.2000E+02
      0.156  0.0000E+00  0.2000E+02
      0.420  0.0000E+00  0.2000E+02
      0.685  0.0000E+00  0.2000E+02
      0.949  0.0000E+00  0.2000E+02
      1.214 -0.4917E-29  0.2000E+02
      1.478 -0.3102E-20  0.2000E+02
      1.743 -0.5557E-13  0.2000E+02
      2.007 -0.2883E-07  0.2000E+02
      2.271 -0.4024E-03  0.2000E+02
      2.536 -0.1258E+00  0.1997E+02
      2.800  0.7721E+00  0.2017E+02
      3.065  0.1487E+02  0.2410E+02
      3.329  0.8193E+01  0.2627E+02
      3.594  0.8184E+01  0.2843E+02
      3.858  0.5922E+01  0.3000E+02
      4.122  0.2543E+01  0.3067E+02
      4.387  0.1272E+02  0.3404E+02
      4.651 -0.7593E-01  0.3402E+02
      4.916 -0.6442E-01  0.3400E+02
      5.180 -0.5478E+00  0.3385E+02
      5.445  0.7692E+01  0.3589E+02
      5.709  0.1613E+02  0.4015E+02
      5.973 -0.5256E+00  0.4001E+02
      6.238 -0.4742E-01  0.4000E+02
      6.502 -0.3273E-04  0.4000E+02
      6.767 -0.5680E-09  0.4000E+02
      7.031 -0.7452E-08  0.4000E+02
      7.296 -0.1587E-03  0.4000E+02
      7.560 -0.7462E-01  0.3998E+02
      7.824  0.6456E+00  0.4015E+02
      8.089  0.6710E+01  0.4193E+02
      8.353  0.7455E-01  0.4195E+02
      8.618  0.5053E+01  0.4328E+02
      8.882  0.2926E+01  0.4405E+02
      9.147 -0.4785E+00  0.4393E+02
      9.411  0.3941E+01  0.4497E+02
      9.675  0.9149E+01  0.4739E+02
      9.940  0.2515E+01  0.4805E+02
     10.204 -0.2058E+00  0.4800E+02
     10.469 -0.1691E-02  0.4800E+02
     10.733 -0.3894E-05  0.4800E+02
     10.998 -0.1153E-01  0.4800E+02
     11.262 -0.6550E+00  0.4782E+02
     11.527  0.1029E+02  0.5055E+02
     11.791  0.1379E+02  0.5419E+02
     12.055 -0.7040E+00  0.5401E+02
     12.320 -0.2516E-01  0.5400E+02
     12.584 -0.1111E-04  0.5400E+02
     12.849 -0.3418E-09  0.5400E+02
     13.113 -0.1592E-04  0.5400E+02
     13.378 -0.2893E-01  0.5399E+02
     13.642 -0.4311E+00  0.5388E+02
     13.906  0.1123E+02  0.5685E+02
     14.171  0.4715E+01  0.5810E+02
     14.435 -0.3588E+00  0.5800E+02
     14.700 -0.2384E-02  0.5800E+02
     14.964 -0.2973E-06  0.5800E+02
     15.229 -0.8767E-05  0.5800E+02
     15.493 -0.1531E-01  0.5800E+02
     15.757 -0.2073E+00  0.5794E+02
     16.022  0.5687E+01  0.5944E+02
     16.286  0.2227E+01  0.6003E+02
     16.551  0.6726E-01  0.6005E+02
     16.815  0.6687E+01  0.6182E+02
     17.080  0.7646E+00  0.6202E+02
     17.344 -0.8222E-01  0.6200E+02
     17.608 -0.1934E-03  0.6200E+02
     17.873 -0.9936E-08  0.6200E+02
     18.137 -0.1344E-13  0.6200E+02
     18.402  0.0000E+00  0.6200E+02
     18.666  0.0000E+00  0.6200E+02
     18.931 -0.1051E-32  0.6200E+02
     19.195 -0.2465E-23  0.6200E+02
     19.459 -0.1699E-15  0.6200E+02
     19.724 -0.3251E-09  0.6200E+02
     19.988 -0.1759E-04  0.6200E+02
     20.253 -0.2293E-01  0.6199E+02
     20.517 -0.1200E+00  0.6196E+02
     20.782  0.6133E+01  0.6358E+02
     21.046  0.1197E+01  0.6390E+02
     21.310  0.7987E+01  0.6601E+02
     21.575  0.8018E+01  0.6813E+02
     21.839 -0.7275E+00  0.6794E+02
     22.104  0.5561E+01  0.6941E+02
     22.368  0.2389E+01  0.7004E+02
     22.633 -0.2948E+00  0.6996E+02
     22.897  0.6167E+01  0.7160E+02
     23.162  0.1670E+01  0.7204E+02
     23.426 -0.1388E+00  0.7200E+02
     23.690 -0.6382E-03  0.7200E+02
     23.955 -0.2769E-01  0.7199E+02
     24.219 -0.1720E+00  0.7195E+02
     24.484  0.7507E+01  0.7393E+02
     24.748  0.7954E+01  0.7604E+02
     25.013 -0.1015E+00  0.7601E+02
     25.277 -0.2220E+00  0.7595E+02
     25.541  0.2507E+01  0.7661E+02
     25.806  0.5379E+01  0.7804E+02
     26.070  0.9436E+00  0.7828E+02
     26.335  0.6486E+01  0.8000E+02
     26.599  0.3526E-01  0.8001E+02
     26.864 -0.3438E-01  0.8000E+02
     27.128 -0.3621E-04  0.8000E+02
     27.392 -0.8982E-09  0.8000E+02
     27.657  0.0000E+00  0.8000E+02
     27.921  0.0000E+00  0.8000E+02
     28.186  0.0000E+00  0.8000E+02
     28.450  0.0000E+00  0.8000E+02
     28.715  0.0000E+00  0.8000E+02
     28.979  0.0000E+00  0.8000E+02
     29.243  0.0000E+00  0.8000E+02
     29.508  0.0000E+00  0.8000E+02
     29.772  0.0000E+00  0.8000E+02
