    4    4    1    1
  0.1841636E+02  0.4192000E-09  0.4192000E-09  0.4192000E-09  0.5000000E-15
  1.000000000000000E-004
  CAR 
 unknown system                          
     34      1     40
 
  0.0000000E+00  0.0000000E+00  0.0000000E+00  0.1000000E+01
      1        -45.951313   1.000000
      2        -23.903116   1.000000
      3        -23.903116   1.000000
      4        -23.737183   1.000000
      5        -22.042311   1.000000
      6        -11.618405   1.000000
      7        -11.382336   1.000000
      8         -7.185024   1.000000
      9         -7.185024   1.000000
     10         -7.090372   1.000000
     11          2.891414   1.000000
     12          3.057950   1.000000
     13          3.057950   1.000000
     14          3.446754   1.000000
     15          3.657324   1.000002
     16          4.209686   0.999999
     17          4.209686   0.999999
     18          5.442364  -0.000000
     19          5.516288  -0.000000
     20          5.516288  -0.000000
     21          7.946510  -0.000000
     22          8.584021   0.000000
     23          9.406586   0.000000
     24          9.636581   0.000000
     25         11.499873   0.000000
     26         11.567467   0.000000
     27         11.567467   0.000000
     28         13.854349   0.000000
     29         13.854349   0.000000
     30         15.967075   0.000000
     31         16.699595   0.000000
     32         20.706863   0.000000
     33         21.309769   0.000000
     34         21.309769   0.000000
     35         22.053533   0.000000
     36         22.820972   0.000000
     37         24.399815   0.000000
     38         24.578810   0.000000
     39         25.588561   0.000000
     40         26.166418   0.000000
