 vasp.6.4.3 19Mar24 (build Jul 09 2024 15:45:28) complex                        
  
 executed on             LinuxIFC date 2024.10.30  14:49:28
 running   40 mpi-ranks, on    1 nodes
 distrk:  each k-point on   40 cores,    1 groups
 distr:  one band on NCORE=   1 cores,   40 groups


--------------------------------------------------------------------------------------------------------


 INCAR:
   GGA = PE
   PREC = normal
   IBRION = -1
   NSW = 0

 POTCAR:    PAW_PBE Ba_sv 06Sep2000               
 POTCAR:    PAW_PBE Zr_sv 04Jan2005               
 POTCAR:    PAW_PBE O 08Apr2002                   
 -----------------------------------------------------------------------------
|                                                                             |
|           W    W    AA    RRRRR   N    N  II  N    N   GGGG   !!!           |
|           W    W   A  A   R    R  NN   N  II  NN   N  G    G  !!!           |
|           W    W  A    A  R    R  N N  N  II  N N  N  G       !!!           |
|           W WW W  AAAAAA  RRRRR   N  N N  II  N  N N  G  GGG   !            |
|           WW  WW  A    A  R   R   N   NN  II  N   NN  G    G                |
|           W    W  A    A  R    R  N    N  II  N    N   GGGG   !!!           |
|                                                                             |
|     For optimal performance we recommend to set                             |
|       NCORE = 2 up to number-of-cores-per-socket                            |
|     NCORE specifies how many cores store one orbital (NPAR=cpu/NCORE).      |
|     This setting can greatly improve the performance of VASP for DFT.       |
|     The default, NCORE=1 might be grossly inefficient on modern             |
|     multi-core architectures or massively parallel machines. Do your        |
|     own testing! More info at https://www.vasp.at/wiki/index.php/NCORE      |
|     Unfortunately you need to use the default for GW and RPA                |
|     calculations (for HF NCORE is supported but not extensively tested      |
|     yet).                                                                   |
|                                                                             |
 -----------------------------------------------------------------------------

 POTCAR:    PAW_PBE Ba_sv 06Sep2000               
   SHA256 =  db99e82e473f9273fc04f241d4a23dc413358649e2d1724098d22351b75b003b Ba_sv/POTCAR          
   COPYR  = (c) Copyright 06Sep2000 Georg Kresse                                                    
   COPYR  = This file is part of the software VASP. Any use, copying, and all other rights are regul
   COPYR  = If you do not have a valid VASP license, you may not use, copy or distribute this file. 
   VRHFIN =Ba: 5s5p6s                                                                               
   LEXCH  = PE                                                                                      
   EATOM  =   700.8560 eV,   51.5115 Ry                                                             
                                                                                                    
   TITEL  = PAW_PBE Ba_sv 06Sep2000                                                                 
   LULTRA =        F    use ultrasoft PP ?                                                          
   IUNSCR =        1    unscreen: 0-lin 1-nonlin 2-no                                               
   RPACOR =    2.400    partial core radius                                                         
   POMASS =  137.327; ZVAL   =   10.000    mass and valenz                                          
   RCORE  =    2.800    outmost cutoff radius                                                       
   RWIGS  =    3.740; RWIGS  =    1.979    wigner-seitz radius (au A)                               
   ENMAX  =  187.181; ENMIN  =  140.386 eV                                                          
   RCLOC  =    2.516    cutoff for local pot                                                        
   LCOR   =        T    correct aug charges                                                         
   LPAW   =        T    paw PP                                                                      
   EAUG   =  351.165                                                                                
   DEXC   =    0.000                                                                                
   RMAX   =    2.865    core radius for proj-oper                                                   
   RAUG   =    1.300    factor for augmentation sphere                                              
   RDEP   =    2.976    radius for radial grids                                                     
   RDEPT  =    2.289    core radius for aug-charge                                                  
                                                                                                    
   Atomic configuration                                                                             
   13 entries                                                                                       
     n  l   j            E        occ.                                                              
     1  0  0.50    -37249.5946   2.0000                                                             
     2  0  0.50     -5887.1925   2.0000                                                             
     2  1  1.50     -5278.3977   6.0000                                                             
     3  0  0.50     -1242.7293   2.0000                                                             
     3  1  1.50     -1047.6609   6.0000                                                             
     3  2  2.50      -764.6158  10.0000                                                             
     4  0  0.50      -243.8228   2.0000                                                             
     4  1  1.50      -180.9218   6.0000                                                             
     4  2  2.50       -89.6477  10.0000                                                             
     5  0  0.50       -33.6549   2.0000                                                             
     6  0  0.50        -3.2247   1.9900                                                             
     5  1  1.50       -18.7193   6.0000                                                             
     5  2  2.50        -2.0115   0.0100                                                             
   Description                                                                                      
     l       E           TYP  RCUT    TYP  RCUT                                                     
     0    -33.6549039     23  2.800                                                                 
     0     -3.2246942     23  2.800                                                                 
     1    -18.7193050     23  2.700                                                                 
     1     27.2116520     23  2.700                                                                 
     2     -2.0115002     23  2.700                                                                 
     2      0.3057420     23  2.700                                                                 
  local pseudopotential read in
  partial core-charges read in
  partial kinetic energy density read in
  atomic valenz-charges read in
  non local Contribution for L=           0  read in
    real space projection operators read in
  non local Contribution for L=           0  read in
    real space projection operators read in
  non local Contribution for L=           1  read in
    real space projection operators read in
  non local Contribution for L=           1  read in
    real space projection operators read in
  non local Contribution for L=           2  read in
    real space projection operators read in
  non local Contribution for L=           2  read in
    real space projection operators read in
    PAW grid and wavefunctions read in
 
   number of l-projection  operators is LMAX  =           6
   number of lm-projection operators is LMMAX =          18
 
 POTCAR:    PAW_PBE Zr_sv 04Jan2005               
   SHA256 =  25aed69cb10325f9d37c5c68912b61a17387d1f8e4f1d804860ffa10c8a4bf76 Zr_sv/POTCAR          
   COPYR  = (c) Copyright 04Jan2005 Georg Kresse                                                    
   COPYR  = This file is part of the software VASP. Any use, copying, and all other rights are regul
   COPYR  = If you do not have a valid VASP license, you may not use, copy or distribute this file. 
   VRHFIN =Zr: 4s4p5s4d                                                                             
   LEXCH  = PE                                                                                      
   EATOM  =  1284.2219 eV,   94.3876 Ry                                                             
                                                                                                    
   TITEL  = PAW_PBE Zr_sv 04Jan2005                                                                 
   LULTRA =        F    use ultrasoft PP ?                                                          
   IUNSCR =        1    unscreen: 0-lin 1-nonlin 2-no                                               
   RPACOR =    2.200    partial core radius                                                         
   POMASS =   91.224; ZVAL   =   12.000    mass and valenz                                          
   RCORE  =    2.500    outmost cutoff radius                                                       
   RWIGS  =    3.070; RWIGS  =    1.625    wigner-seitz radius (au A)                               
   ENMAX  =  229.898; ENMIN  =  172.424 eV                                                          
   ICORE  =        3    local potential                                                             
   LCOR   =        T    correct aug charges                                                         
   LPAW   =        T    paw PP                                                                      
   EAUG   =  461.257                                                                                
   DEXC   =    0.000                                                                                
   RMAX   =    2.561    core radius for proj-oper                                                   
   RAUG   =    1.300    factor for augmentation sphere                                              
   RDEP   =    2.597    radius for radial grids                                                     
   RDEPT  =    2.007    core radius for aug-charge                                                  
                                                                                                    
   Atomic configuration                                                                             
   11 entries                                                                                       
     n  l   j            E        occ.                                                              
     1  0  0.50    -17820.0161   2.0000                                                             
     2  0  0.50     -2467.0882   2.0000                                                             
     2  1  1.50     -2199.6095   6.0000                                                             
     3  0  0.50      -402.4863   2.0000                                                             
     3  1  1.50      -315.3675   6.0000                                                             
     3  2  2.50      -172.4472  10.0000                                                             
     4  0  0.50       -52.4146   2.0000                                                             
     5  0  0.50        -3.8421   1.0000                                                             
     4  1  1.50       -30.5054   6.0000                                                             
     4  2  2.50        -2.3341   3.0000                                                             
     4  3  2.50        -1.3606   0.0000                                                             
   Description                                                                                      
     l       E           TYP  RCUT    TYP  RCUT                                                     
     0    -52.4145962     23  2.200                                                                 
     0     -3.8421270     23  2.500                                                                 
     1    -30.5053914     23  2.200                                                                 
     1     20.4087390     23  2.200                                                                 
     2     -2.3340816     23  2.500                                                                 
     2     -0.6120942     23  2.500                                                                 
     3     -4.0817478     23  2.500                                                                 
  local pseudopotential read in
  partial core-charges read in
  partial kinetic energy density read in
  atomic valenz-charges read in
  non local Contribution for L=           0  read in
    real space projection operators read in
  non local Contribution for L=           0  read in
    real space projection operators read in
  non local Contribution for L=           1  read in
    real space projection operators read in
  non local Contribution for L=           1  read in
    real space projection operators read in
  non local Contribution for L=           2  read in
    real space projection operators read in
  non local Contribution for L=           2  read in
    real space projection operators read in
    PAW grid and wavefunctions read in
 
   number of l-projection  operators is LMAX  =           6
   number of lm-projection operators is LMMAX =          18
 
 POTCAR:    PAW_PBE O 08Apr2002                   
   SHA256 =  818f92134a0a090dccd8ba1447fa70422a3b330e708bb4f08108d8ae51209ddf O/POTCAR              
   COPYR  = (c) Copyright 08Apr2002 Georg Kresse                                                    
   COPYR  = This file is part of the software VASP. Any use, copying, and all other rights are regul
   COPYR  = If you do not have a valid VASP license, you may not use, copy or distribute this file. 
   VRHFIN =O: s2p4                                                                                  
   LEXCH  = PE                                                                                      
   EATOM  =   432.3788 eV,   31.7789 Ry                                                             
                                                                                                    
   TITEL  = PAW_PBE O 08Apr2002                                                                     
   LULTRA =        F    use ultrasoft PP ?                                                          
   IUNSCR =        1    unscreen: 0-lin 1-nonlin 2-no                                               
   RPACOR =    1.200    partial core radius                                                         
   POMASS =   16.000; ZVAL   =    6.000    mass and valenz                                          
   RCORE  =    1.520    outmost cutoff radius                                                       
   RWIGS  =    1.550; RWIGS  =    0.820    wigner-seitz radius (au A)                               
   ENMAX  =  400.000; ENMIN  =  300.000 eV                                                          
   ICORE  =        2    local potential                                                             
   LCOR   =        T    correct aug charges                                                         
   LPAW   =        T    paw PP                                                                      
   EAUG   =  605.392                                                                                
   DEXC   =    0.000                                                                                
   RMAX   =    1.553    core radius for proj-oper                                                   
   RAUG   =    1.300    factor for augmentation sphere                                              
   RDEP   =    1.550    radius for radial grids                                                     
   RDEPT  =    1.329    core radius for aug-charge                                                  
                                                                                                    
   Atomic configuration                                                                             
    4 entries                                                                                       
     n  l   j            E        occ.                                                              
     1  0  0.50      -514.6923   2.0000                                                             
     2  0  0.50       -23.9615   2.0000                                                             
     2  1  0.50        -9.0305   4.0000                                                             
     3  2  1.50        -9.5241   0.0000                                                             
   Description                                                                                      
     l       E           TYP  RCUT    TYP  RCUT                                                     
     0    -23.9615318     23  1.200                                                                 
     0     -9.5240782     23  1.200                                                                 
     1     -9.0304911     23  1.520                                                                 
     1      8.1634956     23  1.520                                                                 
     2     -9.5240782      7  1.500                                                                 
  local pseudopotential read in
  partial core-charges read in
  partial kinetic energy density read in
  kinetic energy density of atom read in
  atomic valenz-charges read in
  non local Contribution for L=           0  read in
    real space projection operators read in
  non local Contribution for L=           0  read in
    real space projection operators read in
  non local Contribution for L=           1  read in
    real space projection operators read in
  non local Contribution for L=           1  read in
    real space projection operators read in
    PAW grid and wavefunctions read in
 
   number of l-projection  operators is LMAX  =           4
   number of lm-projection operators is LMMAX =           8
 
  PAW_PBE Ba_sv 06Sep2000               :
 energy of atom  1       EATOM= -700.8560
 kinetic energy error for atom=    0.0014 (will be added to EATOM!!)
  PAW_PBE Zr_sv 04Jan2005               :
 energy of atom  2       EATOM=-1284.2219
 kinetic energy error for atom=    0.0075 (will be added to EATOM!!)
  PAW_PBE O 08Apr2002                   :
 energy of atom  3       EATOM= -432.3788
 kinetic energy error for atom=    0.1156 (will be added to EATOM!!)
 
 
 POSCAR: Ba Zr O
  positions in cartesian coordinates
  No initial velocities read in


 exchange-correlation table for PE
   RHO(1)=    0.500       N(1)  =     2000
   RHO(2)=  100.500       N(2)  =     4000

 VTST: version 4.1, (05/19/21)

 CHAIN: initializing optimizer
 
 OPT: Using VASP Dynamics algorithm
 CHAIN: Read ICHAIN            0
 
 POSCAR: Ba Zr O
  positions in cartesian coordinates
  No initial velocities read in
 


--------------------------------------------------------------------------------------------------------


 ion  position               nearest neighbor table
   1  0.000  0.000  0.000-   3 2.96   4 2.96   3 2.96   4 2.96   4 2.96   4 2.96   3 2.96   3 2.96
                             2 3.63   2 3.63   2 3.63   2 3.63   2 3.63   2 3.63   2 3.63   2 3.63
   2  0.500  0.500  0.500-   3 2.10   4 2.10   3 2.10   4 2.10   1 3.63   1 3.63   1 3.63   1 3.63
                             1 3.63   1 3.63   1 3.63   1 3.63
   3  0.500  0.000  0.500-   2 2.10   2 2.10   1 2.96   1 2.96   1 2.96   1 2.96
   4  0.000  0.500  0.500-   2 2.10   2 2.10   1 2.96   1 2.96   1 2.96   1 2.96
 
  LATTYP: Found a simple cubic cell.
 ALAT       =     4.1920000000
  
  Lattice vectors:
  
 A1 = (   4.1920000000,   0.0000000000,   0.0000000000)
 A2 = (   0.0000000000,   4.1920000000,   0.0000000000)
 A3 = (   0.0000000000,   0.0000000000,   4.1920000000)


Analysis of symmetry for initial positions (statically):
=====================================================================
 Subroutine PRICEL returns:
 Original cell was already a primitive cell.
 

 Routine SETGRP: Setting up the symmetry group for a 
 simple cubic supercell.


 Subroutine GETGRP returns: Found 16 space group operations
 (whereof 16 operations were pure point group operations)
 out of a pool of 48 trial point group operations.


The static configuration has the point symmetry D_4h.


Analysis of symmetry for dynamics (positions and initial velocities):
=====================================================================
 Subroutine PRICEL returns:
 Original cell was already a primitive cell.
 

 Routine SETGRP: Setting up the symmetry group for a 
 simple cubic supercell.


 Subroutine GETGRP returns: Found 16 space group operations
 (whereof 16 operations were pure point group operations)
 out of a pool of 48 trial point group operations.


The dynamic configuration has the point symmetry D_4h.


 Subroutine INISYM returns: Found 16 space group operations
 (whereof 16 operations are pure point group operations),
 and found     1 'primitive' translations


----------------------------------------------------------------------------------------

                                     Primitive cell                                     

  volume of cell :      73.6654

  direct lattice vectors                    reciprocal lattice vectors
     4.192000000  0.000000000  0.000000000     0.238549618  0.000000000  0.000000000
     0.000000000  4.192000000  0.000000000     0.000000000  0.238549618  0.000000000
     0.000000000  0.000000000  4.192000000     0.000000000  0.000000000  0.238549618

  length of vectors
     4.192000000  4.192000000  4.192000000     0.238549618  0.238549618  0.238549618

  position of ions in fractional coordinates (direct lattice)
     0.000000000  0.000000000  0.000000000
     0.500000000  0.500000000  0.500000000
     0.500000000  0.000000000  0.500000000
     0.000000000  0.500000000  0.500000000

  ion indices of the primitive-cell ions
   primitive index   ion index
                 1           1
                 2           2
                 3           3
                 4           4

----------------------------------------------------------------------------------------

 
 
 KPOINTS: KPOINTS created by Atomic Simulation Env

Automatic generation of k-mesh.
 Grid dimensions read from file:
 generate k-points for:    1    1    1

 Generating k-lattice:

  Cartesian coordinates                     Fractional coordinates (reciprocal lattice)
     0.238549618  0.000000000  0.000000000     1.000000000  0.000000000  0.000000000
     0.000000000  0.238549618  0.000000000     0.000000000  1.000000000  0.000000000
     0.000000000  0.000000000  0.238549618     0.000000000  0.000000000  1.000000000

  Length of vectors
     0.238549618  0.238549618  0.238549618

  Shift w.r.t. Gamma in fractional coordinates (k-lattice)
     0.000000000  0.000000000  0.000000000

 
 Subroutine IBZKPT returns following result:
 ===========================================
 
 Found      1 irreducible k-points:
 
 Following reciprocal coordinates:
            Coordinates               Weight
  0.000000  0.000000  0.000000      1.000000
 
 Following cartesian coordinates:
            Coordinates               Weight
  0.000000  0.000000  0.000000      1.000000
 


--------------------------------------------------------------------------------------------------------




 Dimension of arrays:
   k-points           NKPTS =      1   k-points in BZ     NKDIM =      1   number of bands    NBANDS=     40
   number of dos      NEDOS =    301   number of ions     NIONS =      4
   non local maximal  LDIM  =      6   non local SUM 2l+1 LMDIM =     18
   total plane-waves  NPLWV =  13824
   max r-space proj   IRMAX =      1   max aug-charges    IRDMAX=  11945
   dimension x,y,z NGX =    24 NGY =   24 NGZ =   24
   dimension x,y,z NGXF=    48 NGYF=   48 NGZF=   48
   support grid    NGXF=    48 NGYF=   48 NGZF=   48
   ions per type =               1   1   2
   NGX,Y,Z   is equivalent  to a cutoff of   9.52,  9.52,  9.52 a.u.
   NGXF,Y,Z  is equivalent  to a cutoff of  19.04, 19.04, 19.04 a.u.

 SYSTEM =  unknown system                          
 POSCAR =  Ba Zr O                                 

 Startparameter for this run:
   NWRITE =      2    write-flag & timer
   PREC   = normal    normal or accurate (medium, high low for compatibility)
   ISTART =      0    job   : 0-new  1-cont  2-samecut
   ICHARG =      2    charge: 1-file 2-atom 10-const
   ISPIN  =      1    spin polarized calculation?
   LNONCOLLINEAR =      F non collinear calculations
   LSORBIT =      F    spin-orbit coupling
   INIWAV =      1    electr: 0-lowe 1-rand  2-diag
   LASPH  =      F    aspherical Exc in radial PAW
 Electronic Relaxation 1
   ENCUT  =  400.0 eV  29.40 Ry    5.42 a.u.   6.84  6.84  6.84*2*pi/ulx,y,z
   ENINI  =  400.0     initial cutoff
   ENAUG  =  605.4 eV  augmentation charge cutoff
   NELM   =     60;   NELMIN=  2; NELMDL= -5     # of ELM steps 
   EDIFF  = 0.1E-03   stopping-criterion for ELM
   LREAL  =      F    real-space projection
   NLSPLINE    = F    spline interpolate recip. space projectors
   LCOMPAT=      F    compatible to vasp.4.4
   GGA_COMPAT  = T    GGA compatible to vasp.4.4-vasp.4.6
   LMAXPAW     = -100 max onsite density
   LMAXMIX     =    2 max onsite mixed and CHGCAR
   VOSKOWN=      0    Vosko Wilk Nusair interpolation
   ROPT   =    0.00000   0.00000   0.00000
 Ionic relaxation
   EDIFFG = 0.1E-02   stopping-criterion for IOM
   NSW    =      0    number of steps for IOM
   NBLOCK =      1;   KBLOCK =      1    inner block; outer block 
   IBRION =     -1    ionic relax: 0-MD 1-quasi-New 2-CG
   NFREE  =      0    steps in history (QN), initial steepest desc. (CG)
   ISIF   =      2    stress and relaxation
   IWAVPR =     10    prediction:  0-non 1-charg 2-wave 3-comb
   ISYM   =      2    0-nonsym 1-usesym 2-fastsym
   LCORR  =      T    Harris-Foulkes like correction to forces

   POTIM  = 0.5000    time-step for ionic-motion
   TEIN   =    0.0    initial temperature
   TEBEG  =    0.0;   TEEND  =   0.0 temperature during run
   SMASS  =  -3.00    Nose mass-parameter (am)
   estimated Nose-frequenzy (Omega)   =  0.10E-29 period in steps = 0.13E+47 mass=  -0.402E-27a.u.
   SCALEE = 1.0000    scale energy and forces
   NPACO  =    256;   APACO  = 10.0  distance and # of slots for P.C.
   PSTRESS=    0.0 pullay stress

  Mass of Ions in am
   POMASS = 137.33 91.22 16.00
  Ionic Valenz
   ZVAL   =  10.00 12.00  6.00
  Atomic Wigner-Seitz radii
   RWIGS  =  -1.00 -1.00 -1.00
  virtual crystal weights 
   VCA    =   1.00  1.00  1.00
   NELECT =      34.0000    total number of electrons
   NUPDOWN=      -1.0000    fix difference up-down

 DOS related values:
   EMIN   =  10.00;   EMAX   =-10.00  energy-range for DOS
   EFERMI =   0.00;   METHOD = LEGACY      
   ISMEAR =     1;   SIGMA  =   0.20  broadening in eV -4-tet -1-fermi 0-gaus

 Electronic relaxation 2 (details)
   IALGO  =     38    algorithm
   LDIAG  =      T    sub-space diagonalisation (order eigenvalues)
   LSUBROT=      F    optimize rotation matrix (better conditioning)
   TURBO    =      0    0=normal 1=particle mesh
   IRESTART =      0    0=no restart 2=restart with 2 vectors
   NREBOOT  =      0    no. of reboots
   NMIN     =      0    reboot dimension
   EREF     =   0.00    reference energy to select bands
   IMIX   =      4    mixing-type and parameters
     AMIX     =   0.40;   BMIX     =  1.00
     AMIX_MAG =   1.60;   BMIX_MAG =  1.00
     AMIN     =   0.10
     WC   =   100.;   INIMIX=   1;  MIXPRE=   1;  MAXMIX= -45

 Intra band minimization:
   WEIMIN = 0.0000     energy-eigenvalue tresh-hold
   EBREAK =  0.63E-06  absolut break condition
   DEPER  =   0.30     relativ break condition  

   TIME   =   0.40     timestep for ELM

  volume/ion in A,a.u.               =      18.42       124.28
  Fermi-wavevector in a.u.,A,eV,Ry     =   1.265163  2.390812 21.777999  1.600638
  Thomas-Fermi vector in A             =   2.398431
 
 Write flags
   LWAVE        =      T    write WAVECAR
   LDOWNSAMPLE  =      F    k-point downsampling of WAVECAR
   LCHARG       =      T    write CHGCAR
   LVTOT        =      F    write LOCPOT, total local potential
   LVHAR        =      F    write LOCPOT, Hartree potential only
   WRT_POTENTIAL= false  ! write potential to hdf5 file
   LELF         =      F    write electronic localiz. function (ELF)
   LORBIT       =      0    0 simple, 1 ext, 2 COOP (PROOUT), +10 PAW based schemes


 Dipole corrections
   LMONO      =      F    monopole corrections only (constant potential shift)
   LDIPOL     =      F    correct potential (dipole corrections)
   IDIPOL     =      0    1-x, 2-y, 3-z, 4-all directions 
   EPSILON    =  1.0000000 bulk dielectric constant
   LVACPOTAV  =      F  vacuum potentials using an averaging scheme for the charge density
   VACPOTFLAT =  0.1000000 required flatness to determine vacuum potential
 Exchange correlation treatment:
   GGA     = PE    functional components
   XC_C    = 1    coefficients multiplying the functional components
   LIBXC   =     F    Libxc                    
   VOSKOWN =     0    Vosko Wilk Nusair interpolation
   LHFCALC =     F    Hartree Fock is set to
   LHFONE  =     F    Hartree Fock one center treatment
   AEXX    =    0.0000 exact exchange contribution

 Parameters of functionals:
   PE:
     No parameter
 
 Van der Waals corrections
   IVDW    =     0    specifies the selected vdW correction

 Linear response parameters
   LEPSILON=     F    determine dielectric tensor
   LRPA    =     F    only Hartree local field effects (RPA)
   LNABLA  =     F    use nabla operator in PAW spheres
   LVEL    =     F    velocity operator in full k-point grid
   CSHIFT  =0.1000    complex shift for real part using Kramers Kronig
   OMEGAMAX=  -1.0    maximum frequency
   DEG_THRESHOLD= 0.2000000E-02 threshold for treating states as degnerate
   RTIME   =   -0.100 relaxation time in fs
  (WPLASMAI=    0.000 imaginary part of plasma frequency in eV, 0.658/RTIME)
   DFIELD  = 0.0000000 0.0000000 0.0000000 field for delta impulse in time
 
  Optional k-point grid parameters
   LKPOINTS_OPT  =     F    use optional k-point grid
   KPOINTS_OPT_MODE=     1    mode for optional k-point grid
 
 Orbital magnetization related:
   ORBITALMAG=     F  switch on orbital magnetization
   LCHIMAG   =     F  perturbation theory with respect to B field
   DQ        =  0.001000  dq finite difference perturbation B field
   LLRAUG    =     F  two centre corrections for induced B field
   LBONE     =     F  B-component reconstruction in AE one-centre
   LVGVCALC  =     T  calculate vGv susceptibility
   LVGVAPPL  =     F  apply vGv susceptibility instead of pGv for G=0

 Random number generation:
   RANDOM_GENERATOR = DEFAULT
   PCG_SEED         = not used


--------------------------------------------------------------------------------------------------------


 Static calculation
 charge density and potential will be updated during run
 non-spin polarized calculation
 Variant of blocked Davidson
 Davidson routine will perform the subspace rotation
 perform sub-space diagonalisation
    after iterative eigenvector-optimisation
 modified Broyden-mixing scheme, WC =      100.0
 initial mixing is a Kerker type mixing with AMIX =  0.4000 and BMIX =      1.0000
 Hartree-type preconditioning will be used
 using additional bands           23
 reciprocal scheme for non local part
 use partial core corrections
 calculate Harris-corrections to forces 
   (improved forces if not selfconsistent)
 use gradient corrections 
 use of overlap-Matrix (Vanderbilt PP)
 Methfessel and Paxton  Order N= 1 SIGMA  =   0.20


--------------------------------------------------------------------------------------------------------


  energy-cutoff  :      400.00
  volume of cell :       73.67
      direct lattice vectors                 reciprocal lattice vectors
     4.192000000  0.000000000  0.000000000     0.238549618  0.000000000  0.000000000
     0.000000000  4.192000000  0.000000000     0.000000000  0.238549618  0.000000000
     0.000000000  0.000000000  4.192000000     0.000000000  0.000000000  0.238549618

  length of vectors
     4.192000000  4.192000000  4.192000000     0.238549618  0.238549618  0.238549618


 
 k-points in units of 2pi/SCALE and weight: KPOINTS created by Atomic Simulation Env
   0.00000000  0.00000000  0.00000000       1.000
 
 k-points in reciprocal lattice and weights: KPOINTS created by Atomic Simulation Env
   0.00000000  0.00000000  0.00000000       1.000
 
 position of ions in fractional coordinates (direct lattice) 
   0.00000000  0.00000000  0.00000000
   0.50000000  0.50000000  0.50000000
   0.50000000  0.00000000  0.50000000
   0.00000000  0.50000000  0.50000000
 
 position of ions in cartesian coordinates  (Angst):
   0.00000000  0.00000000  0.00000000
   2.09600000  2.09600000  2.09600000
   2.09600000  0.00000000  2.09600000
   0.00000000  2.09600000  2.09600000
 


--------------------------------------------------------------------------------------------------------


 k-point     1 :   0.0000 0.0000 0.0000  plane waves:    1357

 maximum and minimum number of plane-waves per node :      1357     1357

 maximum number of plane-waves:      1357
 maximum index in each direction: 
   IXMAX=    6   IYMAX=    6   IZMAX=    6
   IXMIN=   -6   IYMIN=   -6   IZMIN=   -6


 serial   3D FFT for wavefunctions
 parallel 3D FFT for charge:
    minimum data exchange during FFTs selected (reduces bandwidth)


 total amount of memory used by VASP MPI-rank0    31837. kBytes
=======================================================================

   base      :      30000. kBytes
   nonl-proj :        674. kBytes
   fftplans  :        212. kBytes
   grid      :        866. kBytes
   one-center:         62. kBytes
   wavefun   :         23. kBytes
 
     INWAV:  cpu time      0.0001: real time      0.0002
 Broyden mixing: mesh for mixing (old mesh)
   NGX = 13   NGY = 13   NGZ = 13
  (NGX  = 48   NGY  = 48   NGZ  = 48)
  gives a total of   2197 points

 initial charge density was supplied:
 charge density of overlapping atoms calculated
 number of electron      34.0000000 magnetization 
 keeping initial charge density in first step


--------------------------------------------------------------------------------------------------------


 Maximum index for augmentation-charges         1030 (set IRDMAX)


--------------------------------------------------------------------------------------------------------


 First call to EWALD:  gamma=   0.423
 Maximum number of real-space cells 3x 3x 3
 Maximum number of reciprocal cells 3x 3x 3

    FEWALD:  cpu time      0.0015: real time      0.0015


--------------------------------------- Ionic step        1  -------------------------------------------




--------------------------------------- Iteration      1(   1)  ---------------------------------------


    POTLOK:  cpu time      0.0073: real time      0.0081
    SETDIJ:  cpu time      0.0029: real time      0.0029
     EDDAV:  cpu time      0.0273: real time      0.0275
       DOS:  cpu time      0.0009: real time      0.0009
    --------------------------------------------
      LOOP:  cpu time      0.0385: real time      0.0395

 eigenvalue-minimisations  :    80
 total energy-change (2. order) : 0.9108477E+02  (-0.1845559E+04)
 number of electron      34.0000000 magnetization 
 augmentation part       34.0000000 magnetization 

 Free energy of the ion-electron system (eV)
  ---------------------------------------------------
  alpha Z        PSCENC =       193.60222308
  Ewald energy   TEWEN  =     -2230.08783499
  -Hartree energ DENC   =      -641.90256918
  -exchange      EXHF   =         0.00000000
  -V(xc)+E(xc)   XCENC  =       130.96739852
  PAW double counting   =      2214.50277941    -2196.50510371
  entropy T*S    EENTRO =         0.01159583
  eigenvalues    EBANDS =      -229.09913497
  atomic energy  EATOM  =      2849.59541854
  Solvation  Ediel_sol  =         0.00000000
  ---------------------------------------------------
  free energy    TOTEN  =        91.08477252 eV

  energy without entropy =       91.07317669  energy(sigma->0) =       91.08090724


--------------------------------------------------------------------------------------------------------




--------------------------------------- Iteration      1(   2)  ---------------------------------------


     EDDAV:  cpu time      0.0301: real time      0.0338
       DOS:  cpu time      0.0002: real time      0.0002
    --------------------------------------------
      LOOP:  cpu time      0.0303: real time      0.0340

 eigenvalue-minimisations  :   120
 total energy-change (2. order) :-0.1235273E+03  (-0.1235273E+03)
 number of electron      34.0000000 magnetization 
 augmentation part       34.0000000 magnetization 

 Free energy of the ion-electron system (eV)
  ---------------------------------------------------
  alpha Z        PSCENC =       193.60222308
  Ewald energy   TEWEN  =     -2230.08783499
  -Hartree energ DENC   =      -641.90256918
  -exchange      EXHF   =         0.00000000
  -V(xc)+E(xc)   XCENC  =       130.96739852
  PAW double counting   =      2214.50277941    -2196.50510371
  entropy T*S    EENTRO =         0.01159581
  eigenvalues    EBANDS =      -352.62647863
  atomic energy  EATOM  =      2849.59541854
  Solvation  Ediel_sol  =         0.00000000
  ---------------------------------------------------
  free energy    TOTEN  =       -32.44257116 eV

  energy without entropy =      -32.45416697  energy(sigma->0) =      -32.44643643


--------------------------------------------------------------------------------------------------------




--------------------------------------- Iteration      1(   3)  ---------------------------------------


     EDDAV:  cpu time      0.0122: real time      0.0201
       DOS:  cpu time      0.0002: real time      0.0002
    --------------------------------------------
      LOOP:  cpu time      0.0124: real time      0.0203

 eigenvalue-minimisations  :    80
 total energy-change (2. order) :-0.4147091E+00  (-0.4147091E+00)
 number of electron      34.0000000 magnetization 
 augmentation part       34.0000000 magnetization 

 Free energy of the ion-electron system (eV)
  ---------------------------------------------------
  alpha Z        PSCENC =       193.60222308
  Ewald energy   TEWEN  =     -2230.08783499
  -Hartree energ DENC   =      -641.90256918
  -exchange      EXHF   =         0.00000000
  -V(xc)+E(xc)   XCENC  =       130.96739852
  PAW double counting   =      2214.50277941    -2196.50510371
  entropy T*S    EENTRO =         0.01159581
  eigenvalues    EBANDS =      -353.04118769
  atomic energy  EATOM  =      2849.59541854
  Solvation  Ediel_sol  =         0.00000000
  ---------------------------------------------------
  free energy    TOTEN  =       -32.85728022 eV

  energy without entropy =      -32.86887603  energy(sigma->0) =      -32.86114549


--------------------------------------------------------------------------------------------------------




--------------------------------------- Iteration      1(   4)  ---------------------------------------


     EDDAV:  cpu time      0.0395: real time      0.0469
       DOS:  cpu time      0.0002: real time      0.0002
    --------------------------------------------
      LOOP:  cpu time      0.0398: real time      0.0471

 eigenvalue-minimisations  :   160
 total energy-change (2. order) :-0.3527297E-02  (-0.3527297E-02)
 number of electron      34.0000000 magnetization 
 augmentation part       34.0000000 magnetization 

 Free energy of the ion-electron system (eV)
  ---------------------------------------------------
  alpha Z        PSCENC =       193.60222308
  Ewald energy   TEWEN  =     -2230.08783499
  -Hartree energ DENC   =      -641.90256918
  -exchange      EXHF   =         0.00000000
  -V(xc)+E(xc)   XCENC  =       130.96739852
  PAW double counting   =      2214.50277941    -2196.50510371
  entropy T*S    EENTRO =         0.01159581
  eigenvalues    EBANDS =      -353.04471498
  atomic energy  EATOM  =      2849.59541854
  Solvation  Ediel_sol  =         0.00000000
  ---------------------------------------------------
  free energy    TOTEN  =       -32.86080751 eV

  energy without entropy =      -32.87240333  energy(sigma->0) =      -32.86467278


--------------------------------------------------------------------------------------------------------




--------------------------------------- Iteration      1(   5)  ---------------------------------------


     EDDAV:  cpu time      0.0119: real time      0.0207
       DOS:  cpu time      0.0002: real time      0.0002
    CHARGE:  cpu time      0.0043: real time      0.0043
    MIXING:  cpu time      0.0019: real time      0.0019
    --------------------------------------------
      LOOP:  cpu time      0.0183: real time      0.0271

 eigenvalue-minimisations  :    80
 total energy-change (2. order) :-0.1203507E-06  (-0.1200318E-06)
 number of electron      34.0000101 magnetization 
 augmentation part        0.3223959 magnetization 

 Broyden mixing:
  rms(total) = 0.18984E+01    rms(broyden)= 0.18975E+01
  rms(prec ) = 0.42817E+01
  weight for this iteration     100.00

 Free energy of the ion-electron system (eV)
  ---------------------------------------------------
  alpha Z        PSCENC =       193.60222308
  Ewald energy   TEWEN  =     -2230.08783499
  -Hartree energ DENC   =      -641.90256918
  -exchange      EXHF   =         0.00000000
  -V(xc)+E(xc)   XCENC  =       130.96739852
  PAW double counting   =      2214.50277941    -2196.50510371
  entropy T*S    EENTRO =         0.01159581
  eigenvalues    EBANDS =      -353.04471510
  atomic energy  EATOM  =      2849.59541854
  Solvation  Ediel_sol  =         0.00000000
  ---------------------------------------------------
  free energy    TOTEN  =       -32.86080763 eV

  energy without entropy =      -32.87240345  energy(sigma->0) =      -32.86467290


--------------------------------------------------------------------------------------------------------




--------------------------------------- Iteration      1(   6)  ---------------------------------------


    POTLOK:  cpu time      0.0043: real time      0.0118
    SETDIJ:  cpu time      0.0015: real time      0.0015
     EDDAV:  cpu time      0.0111: real time      0.0111
       DOS:  cpu time      0.0002: real time      0.0002
    CHARGE:  cpu time      0.0021: real time      0.0021
    MIXING:  cpu time      0.0009: real time      0.0009
    --------------------------------------------
      LOOP:  cpu time      0.0201: real time      0.0276

 eigenvalue-minimisations  :    80
 total energy-change (2. order) : 0.1040611E+02  (-0.5065548E+01)
 number of electron      34.0000083 magnetization 
 augmentation part       -0.0263036 magnetization 

 Broyden mixing:
  rms(total) = 0.76324E+00    rms(broyden)= 0.76227E+00
  rms(prec ) = 0.12444E+01
  weight for this iteration     100.00

 eigenvalues of (default mixing * dielectric matrix)
  average eigenvalue GAMMA=   0.9542
  0.9542

 Free energy of the ion-electron system (eV)
  ---------------------------------------------------
  alpha Z        PSCENC =       193.60222308
  Ewald energy   TEWEN  =     -2230.08783499
  -Hartree energ DENC   =      -671.45074642
  -exchange      EXHF   =         0.00000000
  -V(xc)+E(xc)   XCENC  =       133.37612280
  PAW double counting   =      2512.42478436    -2499.06488311
  entropy T*S    EENTRO =         0.02319293
  eigenvalues    EBANDS =      -310.87297119
  atomic energy  EATOM  =      2849.59541854
  Solvation  Ediel_sol  =         0.00000000
  ---------------------------------------------------
  free energy    TOTEN  =       -22.45469403 eV

  energy without entropy =      -22.47788695  energy(sigma->0) =      -22.46242500


--------------------------------------------------------------------------------------------------------




--------------------------------------- Iteration      1(   7)  ---------------------------------------


    POTLOK:  cpu time      0.0035: real time      0.0117
    SETDIJ:  cpu time      0.0015: real time      0.0015
     EDDAV:  cpu time      0.0200: real time      0.0201
       DOS:  cpu time      0.0002: real time      0.0002
    CHARGE:  cpu time      0.0022: real time      0.0022
    MIXING:  cpu time      0.0002: real time      0.0002
    --------------------------------------------
      LOOP:  cpu time      0.0277: real time      0.0358

 eigenvalue-minimisations  :   120
 total energy-change (2. order) : 0.4425994E+00  (-0.8482874E-01)
 number of electron      34.0000084 magnetization 
 augmentation part       -0.0204100 magnetization 

 Broyden mixing:
  rms(total) = 0.44958E+00    rms(broyden)= 0.44949E+00
  rms(prec ) = 0.70268E+00
  weight for this iteration     100.00

 eigenvalues of (default mixing * dielectric matrix)
  average eigenvalue GAMMA=   1.6210
  1.0505  2.1915

 Free energy of the ion-electron system (eV)
  ---------------------------------------------------
  alpha Z        PSCENC =       193.60222308
  Ewald energy   TEWEN  =     -2230.08783499
  -Hartree energ DENC   =      -663.96152962
  -exchange      EXHF   =         0.00000000
  -V(xc)+E(xc)   XCENC  =       133.02456754
  PAW double counting   =      2673.93815765    -2661.48454484
  entropy T*S    EENTRO =         0.02319382
  eigenvalues    EBANDS =      -316.66174582
  atomic energy  EATOM  =      2849.59541854
  Solvation  Ediel_sol  =         0.00000000
  ---------------------------------------------------
  free energy    TOTEN  =       -22.01209465 eV

  energy without entropy =      -22.03528847  energy(sigma->0) =      -22.01982592


--------------------------------------------------------------------------------------------------------




--------------------------------------- Iteration      1(   8)  ---------------------------------------


    POTLOK:  cpu time      0.0036: real time      0.0117
    SETDIJ:  cpu time      0.0015: real time      0.0015
     EDDAV:  cpu time      0.0199: real time      0.0199
       DOS:  cpu time      0.0002: real time      0.0002
    CHARGE:  cpu time      0.0021: real time      0.0021
    MIXING:  cpu time      0.0002: real time      0.0002
    --------------------------------------------
      LOOP:  cpu time      0.0275: real time      0.0356

 eigenvalue-minimisations  :   120
 total energy-change (2. order) : 0.9640564E-01  (-0.5342828E-01)
 number of electron      34.0000085 magnetization 
 augmentation part       -0.0005663 magnetization 

 Broyden mixing:
  rms(total) = 0.92103E-01    rms(broyden)= 0.91964E-01
  rms(prec ) = 0.17176E+00
  weight for this iteration     100.00

 eigenvalues of (default mixing * dielectric matrix)
  average eigenvalue GAMMA=   1.6326
  1.0237  1.9371  1.9371

 Free energy of the ion-electron system (eV)
  ---------------------------------------------------
  alpha Z        PSCENC =       193.60222308
  Ewald energy   TEWEN  =     -2230.08783499
  -Hartree energ DENC   =      -658.56613348
  -exchange      EXHF   =         0.00000000
  -V(xc)+E(xc)   XCENC  =       132.80477142
  PAW double counting   =      2857.97580595    -2845.78801977
  entropy T*S    EENTRO =         0.02319778
  eigenvalues    EBANDS =      -321.47511755
  atomic energy  EATOM  =      2849.59541854
  Solvation  Ediel_sol  =         0.00000000
  ---------------------------------------------------
  free energy    TOTEN  =       -21.91568901 eV

  energy without entropy =      -21.93888680  energy(sigma->0) =      -21.92342161


--------------------------------------------------------------------------------------------------------




--------------------------------------- Iteration      1(   9)  ---------------------------------------


    POTLOK:  cpu time      0.0034: real time      0.0112
    SETDIJ:  cpu time      0.0015: real time      0.0015
     EDDAV:  cpu time      0.0110: real time      0.0110
       DOS:  cpu time      0.0002: real time      0.0002
    CHARGE:  cpu time      0.0021: real time      0.0021
    MIXING:  cpu time      0.0003: real time      0.0003
    --------------------------------------------
      LOOP:  cpu time      0.0185: real time      0.0263

 eigenvalue-minimisations  :    80
 total energy-change (2. order) :-0.2272425E-02  (-0.4150873E-02)
 number of electron      34.0000084 magnetization 
 augmentation part       -0.0138584 magnetization 

 Broyden mixing:
  rms(total) = 0.22351E-01    rms(broyden)= 0.22342E-01
  rms(prec ) = 0.36131E-01
  weight for this iteration     100.00

 eigenvalues of (default mixing * dielectric matrix)
  average eigenvalue GAMMA=   1.5551
  2.5499  1.0287  1.0287  1.6131

 Free energy of the ion-electron system (eV)
  ---------------------------------------------------
  alpha Z        PSCENC =       193.60222308
  Ewald energy   TEWEN  =     -2230.08783499
  -Hartree energ DENC   =      -662.02545986
  -exchange      EXHF   =         0.00000000
  -V(xc)+E(xc)   XCENC  =       132.99639809
  PAW double counting   =      2863.15447656    -2850.46163506
  entropy T*S    EENTRO =         0.02319423
  eigenvalues    EBANDS =      -318.71474202
  atomic energy  EATOM  =      2849.59541854
  Solvation  Ediel_sol  =         0.00000000
  ---------------------------------------------------
  free energy    TOTEN  =       -21.91796144 eV

  energy without entropy =      -21.94115567  energy(sigma->0) =      -21.92569285


--------------------------------------------------------------------------------------------------------




--------------------------------------- Iteration      1(  10)  ---------------------------------------


    POTLOK:  cpu time      0.0068: real time      0.0115
    SETDIJ:  cpu time      0.0015: real time      0.0015
     EDDAV:  cpu time      0.0198: real time      0.0199
       DOS:  cpu time      0.0002: real time      0.0002
    CHARGE:  cpu time      0.0021: real time      0.0022
    MIXING:  cpu time      0.0003: real time      0.0003
    --------------------------------------------
      LOOP:  cpu time      0.0307: real time      0.0355

 eigenvalue-minimisations  :   120
 total energy-change (2. order) :-0.5074733E-03  (-0.1908873E-03)
 number of electron      34.0000084 magnetization 
 augmentation part       -0.0111617 magnetization 

 Broyden mixing:
  rms(total) = 0.78868E-02    rms(broyden)= 0.78800E-02
  rms(prec ) = 0.12359E-01
  weight for this iteration     100.00

 eigenvalues of (default mixing * dielectric matrix)
  average eigenvalue GAMMA=   1.7437
  2.7093  2.2686  1.0015  1.0015  1.7373

 Free energy of the ion-electron system (eV)
  ---------------------------------------------------
  alpha Z        PSCENC =       193.60222308
  Ewald energy   TEWEN  =     -2230.08783499
  -Hartree energ DENC   =      -661.78565375
  -exchange      EXHF   =         0.00000000
  -V(xc)+E(xc)   XCENC  =       132.98607218
  PAW double counting   =      2868.72917351    -2856.00418461
  entropy T*S    EENTRO =         0.02319426
  eigenvalues    EBANDS =      -318.97687712
  atomic energy  EATOM  =      2849.59541854
  Solvation  Ediel_sol  =         0.00000000
  ---------------------------------------------------
  free energy    TOTEN  =       -21.91846891 eV

  energy without entropy =      -21.94166317  energy(sigma->0) =      -21.92620033


--------------------------------------------------------------------------------------------------------




--------------------------------------- Iteration      1(  11)  ---------------------------------------


    POTLOK:  cpu time      0.0031: real time      0.0115
    SETDIJ:  cpu time      0.0015: real time      0.0015
     EDDAV:  cpu time      0.0109: real time      0.0110
       DOS:  cpu time      0.0002: real time      0.0002
    CHARGE:  cpu time      0.0022: real time      0.0021
    MIXING:  cpu time      0.0002: real time      0.0002
    --------------------------------------------
      LOOP:  cpu time      0.0182: real time      0.0265

 eigenvalue-minimisations  :    80
 total energy-change (2. order) :-0.1574213E-03  (-0.2320840E-04)
 number of electron      34.0000084 magnetization 
 augmentation part       -0.0109311 magnetization 

 Broyden mixing:
  rms(total) = 0.16217E-02    rms(broyden)= 0.16198E-02
  rms(prec ) = 0.27321E-02
  weight for this iteration     100.00

 eigenvalues of (default mixing * dielectric matrix)
  average eigenvalue GAMMA=   1.6376
  2.7410  2.4600  1.6374  1.0247  0.9812  0.9812

 Free energy of the ion-electron system (eV)
  ---------------------------------------------------
  alpha Z        PSCENC =       193.60222308
  Ewald energy   TEWEN  =     -2230.08783499
  -Hartree energ DENC   =      -661.81648783
  -exchange      EXHF   =         0.00000000
  -V(xc)+E(xc)   XCENC  =       132.98899620
  PAW double counting   =      2867.89433267    -2855.15747934
  entropy T*S    EENTRO =         0.02319414
  eigenvalues    EBANDS =      -318.96098880
  atomic energy  EATOM  =      2849.59541854
  Solvation  Ediel_sol  =         0.00000000
  ---------------------------------------------------
  free energy    TOTEN  =       -21.91862633 eV

  energy without entropy =      -21.94182048  energy(sigma->0) =      -21.92635771


--------------------------------------------------------------------------------------------------------




--------------------------------------- Iteration      1(  12)  ---------------------------------------


    POTLOK:  cpu time      0.0110: real time      0.0112
    SETDIJ:  cpu time      0.0015: real time      0.0015
     EDDAV:  cpu time      0.0053: real time      0.0054
       DOS:  cpu time      0.0002: real time      0.0002
    --------------------------------------------
      LOOP:  cpu time      0.0181: real time      0.0183

 eigenvalue-minimisations  :    40
 total energy-change (2. order) : 0.1539514E-05  (-0.1964913E-05)
 number of electron      34.0000084 magnetization 
 augmentation part       -0.0109311 magnetization 

 Free energy of the ion-electron system (eV)
  ---------------------------------------------------
  alpha Z        PSCENC =       193.60222308
  Ewald energy   TEWEN  =     -2230.08783499
  -Hartree energ DENC   =      -661.84887508
  -exchange      EXHF   =         0.00000000
  -V(xc)+E(xc)   XCENC  =       132.99039407
  PAW double counting   =      2867.18545136    -2854.44372045
  entropy T*S    EENTRO =         0.02319412
  eigenvalues    EBANDS =      -318.93487545
  atomic energy  EATOM  =      2849.59541854
  Solvation  Ediel_sol  =         0.00000000
  ---------------------------------------------------
  free energy    TOTEN  =       -21.91862479 eV

  energy without entropy =      -21.94181892  energy(sigma->0) =      -21.92635617


--------------------------------------------------------------------------------------------------------




 average (electrostatic) potential at core
  the test charge radii are     1.2192  1.0638  0.7215
  (the norm of the test charge is              1.0000)
       1 -34.0122       2 -81.0577       3 -67.3969       4 -67.3969
 
 
 
 E-fermi :   4.3781     XC(G=0): -10.1619     alpha+bet :-12.8644

 val. band max:        4.2096858391   @ k =   0.0000   0.0000   0.0000
 cond. band min:       5.4423644506   @ k =   0.0000   0.0000   0.0000
 fundamental gap:      1.2326786116
 Fermi energy:         4.3780613010

 k-point     1 :       0.0000    0.0000    0.0000
  band No.  band energies     occupation 
      1     -45.9513      2.00000
      2     -23.9031      2.00000
      3     -23.9031      2.00000
      4     -23.7372      2.00000
      5     -22.0423      2.00000
      6     -11.6184      2.00000
      7     -11.3823      2.00000
      8      -7.1850      2.00000
      9      -7.1850      2.00000
     10      -7.0904      2.00000
     11       2.8914      2.00000
     12       3.0580      2.00000
     13       3.0580      2.00000
     14       3.4468      2.00000
     15       3.6573      2.00000
     16       4.2097      2.00000
     17       4.2097      2.00000
     18       5.4424     -0.00000
     19       5.5163     -0.00000
     20       5.5163     -0.00000
     21       7.9465     -0.00000
     22       8.5840      0.00000
     23       9.4066      0.00000
     24       9.6366      0.00000
     25      11.4999      0.00000
     26      11.5675      0.00000
     27      11.5675      0.00000
     28      13.8543      0.00000
     29      13.8543      0.00000
     30      15.9671      0.00000
     31      16.6996      0.00000
     32      20.7069      0.00000
     33      21.3098      0.00000
     34      21.3098      0.00000
     35      22.0535      0.00000
     36      22.8210      0.00000
     37      24.3998      0.00000
     38      24.5788      0.00000
     39      25.5886      0.00000
     40      26.1664      0.00000


--------------------------------------------------------------------------------------------------------


 soft charge-density along one line, spin component           1
         0         1         2         3         4         5         6         7         8         9
 total charge-density along one line
 
 pseudopotential strength for first ion, spin component:           1
  1.105  -4.993  -0.000  -0.000   0.000  -0.000  -0.000   0.000
 -4.993   0.661   0.000   0.000  -0.000  -0.000  -0.000   0.000
 -0.000   0.000  -7.729  -0.000  -0.000   4.525  -0.000  -0.000
 -0.000   0.000  -0.000  -7.736   0.000  -0.000   4.512   0.000
  0.000  -0.000  -0.000   0.000  -7.729  -0.000   0.000   4.525
 -0.000  -0.000   4.525  -0.000  -0.000   6.709   0.000   0.000
 -0.000  -0.000  -0.000   4.512   0.000   0.000   6.730  -0.000
  0.000   0.000  -0.000   0.000   4.525   0.000  -0.000   6.709
 -0.000   0.000   0.000  -0.000  -0.000   0.000  -0.000  -0.000
 -0.000   0.000  -0.000  -0.000  -0.000  -0.000  -0.000  -0.000
 -0.005   0.005   0.000  -0.000   0.000   0.000  -0.000   0.000
  0.000  -0.000  -0.000   0.000  -0.000  -0.000   0.000  -0.000
 -0.000   0.000   0.000  -0.000   0.000   0.000  -0.000   0.000
 -0.000   0.000   0.000  -0.000  -0.000  -0.000  -0.000  -0.000
 -0.000   0.000  -0.000  -0.000  -0.000  -0.000  -0.000  -0.000
 -0.008   0.008   0.000  -0.000  -0.000   0.000  -0.000  -0.000
  0.000  -0.000  -0.000   0.000  -0.000  -0.000   0.000  -0.000
 -0.000   0.000   0.000  -0.000  -0.000   0.000  -0.000   0.000
 total augmentation occupancy for first ion, spin component:           1
  2.002  -0.007   0.000   0.000   0.000   0.000   0.000   0.000   0.000   0.000   0.056   0.000  -0.000   0.000  -0.000  -0.032
 -0.007   0.659   0.000   0.000   0.000   0.000   0.000   0.000   0.000   0.000  -1.126   0.000   0.000   0.000   0.000   0.544
  0.000   0.000   2.033  -0.000   0.000  -0.008  -0.000   0.000   0.000   0.000   0.000   0.000   0.000   0.000   0.000   0.000
  0.000   0.000  -0.000   2.058  -0.000   0.000  -0.025   0.000   0.000   0.000   0.000   0.000   0.000   0.000   0.000   0.000
  0.000   0.000   0.000  -0.000   2.033   0.000  -0.000  -0.008   0.000   0.000   0.000   0.000   0.000   0.000   0.000   0.000
  0.000   0.000  -0.008   0.000   0.000   0.008   0.000   0.000   0.000   0.000   0.000   0.000   0.000   0.000   0.000   0.000
  0.000   0.000  -0.000  -0.025  -0.000   0.000   0.015   0.000   0.000   0.000   0.000   0.000   0.000   0.000   0.000   0.000
  0.000   0.000   0.000   0.000  -0.008   0.000   0.000   0.008   0.000   0.000   0.000   0.000   0.000   0.000   0.000   0.000
  0.000   0.000   0.000   0.000   0.000   0.000   0.000   0.000   0.000  -0.000   0.000  -0.000   0.000  -0.000   0.000   0.000
  0.000   0.000   0.000   0.000   0.000   0.000   0.000   0.000  -0.000   0.000   0.000   0.000   0.000  -0.000  -0.000  -0.000
  0.056  -1.126   0.000   0.000   0.000   0.000   0.000   0.000   0.000   0.000   2.518   0.000  -0.000   0.000   0.000  -1.248
  0.000   0.000   0.000   0.000   0.000   0.000   0.000   0.000  -0.000   0.000   0.000   0.000  -0.000   0.000   0.000   0.000
 -0.000   0.000   0.000   0.000   0.000   0.000   0.000   0.000   0.000   0.000  -0.000  -0.000   0.463  -0.000   0.000   0.000
  0.000   0.000   0.000   0.000   0.000   0.000   0.000   0.000  -0.000  -0.000   0.000   0.000  -0.000   0.000   0.000   0.000
 -0.000   0.000   0.000   0.000   0.000   0.000   0.000   0.000   0.000  -0.000   0.000   0.000   0.000   0.000   0.000   0.000
 -0.032   0.544   0.000   0.000   0.000   0.000   0.000   0.000   0.000  -0.000  -1.248   0.000   0.000   0.000   0.000   0.619
  0.000   0.000   0.000   0.000   0.000   0.000   0.000   0.000   0.000   0.000   0.000  -0.000   0.000   0.000   0.000   0.000
  0.000  -0.000   0.000   0.000   0.000   0.000   0.000   0.000  -0.000   0.000   0.000   0.000  -0.273   0.000   0.000  -0.000


------------------------ aborting loop because EDIFF is reached ----------------------------------------


    CHARGE:  cpu time      0.0022: real time      0.0022
    FORLOC:  cpu time      0.0004: real time      0.0004
    FORNL :  cpu time      0.0023: real time      0.0024
    STRESS:  cpu time      0.0107: real time      0.0108
    FORCOR:  cpu time      0.0038: real time      0.0038
    FORHAR:  cpu time      0.0011: real time      0.0012
    MIXING:  cpu time      0.0003: real time      0.0003
    OFIELD:  cpu time      0.0003: real time      0.0003

  FORCE on cell =-STRESS in cart. coord.  units (eV):
  Direction    XX          YY          ZZ          XY          YZ          ZX
  --------------------------------------------------------------------------------------
  Alpha Z   193.60222   193.60222   193.60222
  Ewald    -529.35265  -529.35265 -1171.38395     0.00000     0.00000    -0.00000
  Hartree   358.31836   358.31836   -54.78652    -0.00000    -0.00000    -0.00000
  E(xc)    -145.85569  -145.85569  -146.23321    -0.00000     0.00000    -0.00000
  Local    -410.81843  -410.81843   628.71064    -0.00000     0.00000     0.00000
  n-local   -85.31420   -85.31421  -106.03026     0.00000     0.00000     0.00000
  augment     8.49832     8.49832    12.13342     0.00000    -0.00000    -0.00000
  Kinetic   625.46014   625.46013   648.92778     0.00000    -0.00000    -0.00000
  Fock        0.00000     0.00000     0.00000     0.00000     0.00000     0.00000
  -------------------------------------------------------------------------------------
  Total      14.53806    14.53806     4.94013     0.00000     0.00000    -0.00000
  in kB     316.19371   316.19371   107.44474     0.00000     0.00000    -0.00000
  external pressure =      246.61 kB  Pullay stress =        0.00 kB


 VOLUME and BASIS-vectors are now :
 -----------------------------------------------------------------------------
  energy-cutoff  :      400.00
  volume of cell :       73.67
      direct lattice vectors                 reciprocal lattice vectors
     4.192000000  0.000000000  0.000000000     0.238549618  0.000000000  0.000000000
     0.000000000  4.192000000  0.000000000     0.000000000  0.238549618  0.000000000
     0.000000000  0.000000000  4.192000000     0.000000000  0.000000000  0.238549618

  length of vectors
     4.192000000  4.192000000  4.192000000     0.238549618  0.238549618  0.238549618


 FORCES acting on ions
    electron-ion (+dipol)            ewald-force                    non-local-force                 convergence-correction
 -----------------------------------------------------------------------------------------------
   -.353E-14 -.163E-14 -.262E-14   0.539E-14 -.260E-14 -.140E-14   -.151E-23 0.152E-23 0.340E-24   0.183E-14 -.138E-14 -.144E-13
   0.142E-12 0.169E-12 -.485E-11   -.160E-13 0.163E-13 0.338E-14   0.466E-25 -.221E-25 0.103E-25   0.293E-14 0.163E-13 0.465E-13
   0.182E-12 -.119E-14 -.262E-11   -.232E-15 -.154E-13 -.412E-15   -.261E-22 -.113E-23 -.514E-23   -.407E-14 -.216E-14 0.303E-13
   -.136E-15 0.180E-12 0.188E-12   0.110E-13 0.108E-14 -.397E-15   0.106E-23 0.267E-22 0.111E-23   -.156E-14 0.162E-13 0.291E-13
 -----------------------------------------------------------------------------------------------
   0.320E-12 0.346E-12 -.728E-11   0.192E-15 -.609E-15 0.117E-14   -.265E-22 0.270E-22 -.368E-23   -.861E-15 0.290E-13 0.915E-13
 
 
 POSITION                                       TOTAL-FORCE (eV/Angst)
 -----------------------------------------------------------------------------------
      0.00000      0.00000      0.00000        -0.000000      0.000000     -0.000000
      2.09600      2.09600      2.09600         0.000000     -0.000000      0.000000
      2.09600      0.00000      2.09600        -0.000000      0.000000     -0.000000
      0.00000      2.09600      2.09600        -0.000000      0.000000      0.000000
 -----------------------------------------------------------------------------------
    total drift:                                0.000000      0.000000     -0.000000


--------------------------------------------------------------------------------------------------------



  FREE ENERGIE OF THE ION-ELECTRON SYSTEM (eV)
  ---------------------------------------------------
  free  energy   TOTEN  =       -21.91862479 eV

  energy  without entropy=      -21.94181892  energy(sigma->0) =      -21.92635617
 


--------------------------------------------------------------------------------------------------------


    POTLOK:  cpu time      0.0048: real time      0.0048


--------------------------------------------------------------------------------------------------------


 stress matrix after NEB project (eV)
     14.53806      0.00000     -0.00000
      0.00000     14.53806     -0.00000
      0.00000      0.00000      4.94013
  FORCES: max atom, RMS     0.000000    0.000000
  FORCE total and by dimension    0.000000    0.000000
  Stress total and by dimension   21.145100   14.538060
 writing wavefunctions
     LOOP+:  cpu time      0.4310: real time      0.5160
    4ORBIT:  cpu time      0.0000: real time      0.0000

 total amount of memory used by VASP MPI-rank0    31837. kBytes
=======================================================================

   base      :      30000. kBytes
   nonl-proj :        674. kBytes
   fftplans  :        212. kBytes
   grid      :        866. kBytes
   one-center:         62. kBytes
   wavefun   :         23. kBytes
 
  
  
 General timing and accounting informations for this job:
 ========================================================
  
                  Total CPU time used (sec):        1.126
                            User time (sec):        0.758
                          System time (sec):        0.368
                         Elapsed time (sec):        1.683
  
                   Maximum memory used (kb):      162552.
                   Average memory used (kb):          N/A
  
                          Minor page faults:        22177
                          Major page faults:            0
                 Voluntary context switches:         1300
