<?xml version="1.0" encoding="ISO-8859-1"?>
<modeling>
 <generator>
  <i name="program" type="string">vasp </i>
  <i name="version" type="string">6.4.3  </i>
  <i name="subversion" type="string">19Mar24 (build Jul 09 2024 15:45:28) complex                          parallel </i>
  <i name="platform" type="string">LinuxIFC </i>
  <i name="date" type="string">2024 10 30 </i>
  <i name="time" type="string">14:49:28 </i>
 </generator>
 <incar>
  <i type="string" name="PREC">normal</i>
  <i type="int" name="IBRION">    -1</i>
  <i type="int" name="NSW">     0</i>
  <i type="string" name="GGA">PE</i>
 </incar>
 <primitive_cell>
  <structure name="primitive_cell" >
   <crystal>
    <varray name="basis" >
     <v>       4.19200000       0.00000000       0.00000000 </v>
     <v>       0.00000000       4.19200000       0.00000000 </v>
     <v>       0.00000000       0.00000000       4.19200000 </v>
    </varray>
    <i name="volume">     73.66544589 </i>
    <varray name="rec_basis" >
     <v>       0.23854962       0.00000000       0.00000000 </v>
     <v>       0.00000000       0.23854962       0.00000000 </v>
     <v>       0.00000000       0.00000000       0.23854962 </v>
    </varray>
   </crystal>
   <varray name="positions" >
    <v>       0.00000000       0.00000000       0.00000000 </v>
    <v>       0.50000000       0.50000000       0.50000000 </v>
    <v>       0.50000000       0.00000000       0.50000000 </v>
    <v>       0.00000000       0.50000000       0.50000000 </v>
   </varray>
  </structure>
  <varray name="primitive_index" >
   <v type="int" >        1 </v>
   <v type="int" >        2 </v>
   <v type="int" >        3 </v>
   <v type="int" >        4 </v>
  </varray>
 </primitive_cell>
 <kpoints>
  <generation param="Monkhorst-Pack">
   <v type="int" name="divisions">       1        1        1 </v>
   <v name="usershift">      0.00000000       0.00000000       0.00000000 </v>
   <v name="genvec1">      1.00000000       0.00000000       0.00000000 </v>
   <v name="genvec2">      0.00000000       1.00000000       0.00000000 </v>
   <v name="genvec3">      0.00000000       0.00000000       1.00000000 </v>
   <v name="shift">      0.00000000       0.00000000       0.00000000 </v>
  </generation>
  <varray name="kpointlist" >
   <v>       0.00000000       0.00000000       0.00000000 </v>
  </varray>
  <varray name="weights" >
   <v>       1.00000000 </v>
  </varray>
 </kpoints>
 <parameters>
  <separator name="general" >
   <i type="string" name="SYSTEM">unknown system</i>
   <i type="logical" name="LCOMPAT"> F  </i>
  </separator>
  <separator name="electronic" >
   <i type="string" name="PREC">normal</i>
   <i name="ENMAX">    400.00000000</i>
   <i name="ENAUG">    605.39200000</i>
   <i name="EDIFF">      0.00010000</i>
   <i type="int" name="IALGO">    38</i>
   <i type="int" name="IWAVPR">    10</i>
   <i type="int" name="NBANDS">    40</i>
   <i type="int" name="NBANDSLOW">    -1</i>
   <i type="int" name="NBANDSHIGH">    -1</i>
   <i name="NELECT">     34.00000000</i>
   <i type="int" name="TURBO">     0</i>
   <i type="int" name="IRESTART">     0</i>
   <i type="int" name="NREBOOT">     0</i>
   <i type="int" name="NMIN">     0</i>
   <i name="EREF">      0.00000000</i>
   <separator name="electronic smearing" >
    <i type="int" name="ISMEAR">     1</i>
    <i name="SIGMA">      0.20000000</i>
    <i name="KSPACING">      0.50000000</i>
    <i type="logical" name="KGAMMA"> T  </i>
    <i type="logical" name="KBLOWUP"> T  </i>
   </separator>
   <separator name="electronic projectors" >
    <i type="logical" name="LREAL"> F  </i>
    <v name="ROPT">      0.00000000      0.00000000      0.00000000</v>
    <i type="int" name="LMAXPAW">  -100</i>
    <i type="int" name="LMAXMIX">     2</i>
    <i type="logical" name="NLSPLINE"> F  </i>
   </separator>
   <separator name="electronic startup" >
    <i type="int" name="ISTART">     0</i>
    <i type="int" name="ICHARG">     2</i>
    <i type="int" name="INIWAV">     1</i>
   </separator>
   <separator name="electronic spin" >
    <i type="int" name="ISPIN">     1</i>
    <i type="logical" name="LNONCOLLINEAR"> F  </i>
    <v name="MAGMOM">      1.00000000      1.00000000      1.00000000      1.00000000</v>
    <i name="NUPDOWN">     -1.00000000</i>
    <i type="logical" name="LSORBIT"> F  </i>
    <v name="SAXIS">      0.00000000      0.00000000      1.00000000</v>
    <i type="logical" name="LSPIRAL"> F  </i>
    <v name="QSPIRAL">      0.00000000      0.00000000      0.00000000</v>
    <i type="logical" name="LZEROZ"> F  </i>
   </separator>
   <separator name="electronic exchange-correlation" >
    <i type="logical" name="LASPH"> F  </i>
   </separator>
   <separator name="electronic convergence" >
    <i type="int" name="NELM">    60</i>
    <i type="int" name="NELMDL">    -5</i>
    <i type="int" name="NELMIN">     2</i>
    <i name="ENINI">    400.00000000</i>
    <separator name="electronic convergence detail" >
     <i type="logical" name="LDIAG"> T  </i>
     <i type="logical" name="LSUBROT"> F  </i>
     <i name="WEIMIN">      0.00000000</i>
     <i name="EBREAK">      0.00000063</i>
     <i name="DEPER">      0.30000000</i>
     <i type="int" name="NRMM">     4</i>
     <i name="TIME">      0.40000000</i>
    </separator>
   </separator>
   <separator name="electronic mixer" >
    <i name="AMIX">      0.40000000</i>
    <i name="BMIX">      1.00000000</i>
    <i name="AMIN">      0.10000000</i>
    <i name="AMIX_MAG">      1.60000000</i>
    <i name="BMIX_MAG">      1.00000000</i>
    <separator name="electronic mixer details" >
     <i type="int" name="IMIX">     4</i>
     <i type="logical" name="MIXFIRST"> F  </i>
     <i type="int" name="MAXMIX">   -45</i>
     <i name="WC">    100.00000000</i>
     <i type="int" name="INIMIX">     1</i>
     <i type="int" name="MIXPRE">     1</i>
     <i type="int" name="MREMOVE">     5</i>
    </separator>
   </separator>
   <separator name="electronic dipolcorrection" >
    <i type="logical" name="LDIPOL"> F  </i>
    <i type="logical" name="LMONO"> F  </i>
    <i type="int" name="IDIPOL">     0</i>
    <i name="EPSILON">      1.00000000</i>
    <v name="DIPOL">   -100.00000000   -100.00000000   -100.00000000</v>
    <i name="EFIELD">      0.00000000</i>
    <i type="logical" name="LVACPOTAV"> F  </i>
   </separator>
  </separator>
  <separator name="grids" >
   <i type="int" name="NGX">    24</i>
   <i type="int" name="NGY">    24</i>
   <i type="int" name="NGZ">    24</i>
   <i type="int" name="NGXF">    48</i>
   <i type="int" name="NGYF">    48</i>
   <i type="int" name="NGZF">    48</i>
   <i type="logical" name="ADDGRID"> F  </i>
  </separator>
  <separator name="ionic" >
   <i type="int" name="NSW">     0</i>
   <i type="int" name="IBRION">    -1</i>
   <i type="int" name="MDALGO">     0</i>
   <i type="int" name="ISIF">     2</i>
   <i name="PSTRESS">      0.00000000</i>
   <i name="EDIFFG">      0.00100000</i>
   <i type="int" name="NFREE">     0</i>
   <i name="POTIM">      0.50000000</i>
   <i name="SMASS">     -3.00000000</i>
   <i name="SCALEE">      1.00000000</i>
  </separator>
  <separator name="ionic md" >
   <i name="TEBEG">      0.00010000</i>
   <i name="TEEND">      0.00010000</i>
   <i type="int" name="NBLOCK">     1</i>
   <i type="int" name="KBLOCK">     1</i>
   <i type="int" name="NPACO">   256</i>
   <i name="APACO">     10.00000000</i>
  </separator>
  <separator name="symmetry" >
   <i type="int" name="ISYM">     2</i>
   <i name="SYMPREC">      0.00001000</i>
  </separator>
  <separator name="dos" >
   <i type="int" name="LORBIT">     0</i>
   <v name="RWIGS">     -1.00000000     -1.00000000     -1.00000000</v>
   <i type="int" name="NEDOS">   301</i>
   <i name="EMIN">     10.00000000</i>
   <i name="EMAX">    -10.00000000</i>
   <i name="EFERMI">      0.00000000</i>
  </separator>
  <separator name="writing" >
   <i type="int" name="NWRITE">     2</i>
   <i type="logical" name="LWAVE"> T  </i>
   <i type="logical" name="LDOWNSAMPLE"> F  </i>
   <i type="logical" name="LCHARG"> T  </i>
   <i type="logical" name="LPARD"> F  </i>
   <i type="logical" name="LVTOT"> F  </i>
   <i type="logical" name="LVHAR"> F  </i>
   <i type="logical" name="LELF"> F  </i>
   <i type="logical" name="LOPTICS"> F  </i>
   <v name="STM">      0.00000000      0.00000000      0.00000000      0.00000000      0.00000000      0.00000000      0.00000000</v>
  </separator>
  <separator name="performance" >
   <i type="int" name="NPAR">    40</i>
   <i type="int" name="NSIM">     4</i>
   <i type="int" name="NBLK">    -1</i>
   <i type="logical" name="LPLANE"> T  </i>
   <i type="logical" name="LSCALAPACK"> T  </i>
   <i type="logical" name="LSCAAWARE"> T  </i>
   <i type="logical" name="LSCALU"> F  </i>
   <i type="logical" name="LASYNC"> F  </i>
   <i type="logical" name="LORBITALREAL"> F  </i>
  </separator>
  <separator name="miscellaneous" >
   <i type="int" name="IDIOT">     3</i>
   <i type="int" name="PHON_NSTRUCT">    -1</i>
   <i type="logical" name="LMUSIC"> F  </i>
   <v name="POMASS">    137.32700000     91.22400000     16.00000000</v>
   <v name="DARWINR">      0.00000000      0.00000000      0.00000000</v>
   <v name="DARWINV">      1.00000000      1.00000000      1.00000000</v>
   <i type="logical" name="LCORR"> T  </i>
  </separator>
  <i type="logical" name="GGA_COMPAT"> T  </i>
  <i type="logical" name="LBERRY"> F  </i>
  <i type="int" name="ICORELEVEL">     0</i>
  <i type="logical" name="LDAU"> F  </i>
  <i type="int" name="I_CONSTRAINED_M">     0</i>
  <separator name="electronic exchange-correlation" >
   <i type="string" name="GGA    ">PE</i>
   <i type="string" name="XC_C">1</i>
   <i type="int" name="VOSKOWN">     0</i>
   <i type="logical" name="LHFCALC"> F  </i>
   <i type="string" name="PRECFOCK"></i>
   <i type="logical" name="LSYMGRAD"> F  </i>
   <i type="logical" name="LHFONE"> F  </i>
   <i type="logical" name="LRHFCALC"> F  </i>
   <i type="logical" name="LTHOMAS"> F  </i>
   <i type="logical" name="LMODELHF"> F  </i>
   <i type="logical" name="LFOCKACE"> F  </i>
   <i name="ENCUT4O">     -1.00000000</i>
   <i type="int" name="EXXOEP">     0</i>
   <i type="int" name="FOURORBIT">     0</i>
   <i name="AEXX">      0.00000000</i>
   <i name="HFALPHA">      0.00000000</i>
   <i name="MCALPHA">      0.00000000</i>
   <i name="ALDAX">      1.00000000</i>
   <i name="AGGAX">      1.00000000</i>
   <i name="AMGGAX">      1.00000000</i>
   <i name="ALDAC">      1.00000000</i>
   <i name="AGGAC">      1.00000000</i>
   <i name="AMGGAC">      1.00000000</i>
   <i type="int" name="NKREDX">     1</i>
   <i type="int" name="NKREDY">     1</i>
   <i type="int" name="NKREDZ">     1</i>
   <i type="logical" name="SHIFTRED"> F  </i>
   <i type="logical" name="ODDONLY"> F  </i>
   <i type="logical" name="EVENONLY"> F  </i>
   <i type="int" name="LMAXFOCK">     0</i>
   <i type="int" name="NMAXFOCKAE">     0</i>
   <i type="logical" name="LFOCKAEDFT"> F  </i>
   <i name="HFSCREEN">      0.00000000</i>
   <i name="HFSCREENC">      0.00000000</i>
   <i type="int" name="NBANDSGWLOW">     0</i>
  </separator>
  <separator name="vdW DFT" >
   <i type="logical" name="LUSE_VDW"> F  </i>
   <i type="int" name="IVDW_NL">    -1</i>
   <i type="logical" name="LSPIN_VDW"> F  </i>
   <i name="ZAB_VDW">     -0.84910000</i>
   <i name="GAMMA_VDW">      1.39626340</i>
   <i name="ALPHA_VDW">      0.00000000</i>
   <i name="PARAM1">      0.12340000</i>
   <i name="PARAM2">      1.00000000</i>
   <i name="BPARAM">      6.30000000</i>
   <i name="CPARAM">      0.00930000</i>
  </separator>
  <separator name="model GW" >
   <i type="int" name="MODEL_GW">     0</i>
   <i name="MODEL_EPS0">     11.04981688</i>
   <i name="MODEL_ALPHA">      1.00000000</i>
  </separator>
  <separator name="linear response parameters" >
   <i type="logical" name="LEPSILON"> F  </i>
   <i type="logical" name="LRPA"> F  </i>
   <i type="logical" name="LNABLA"> F  </i>
   <i type="logical" name="LVEL"> F  </i>
   <i name="CSHIFT">      0.10000000</i>
   <i name="OMEGAMAX">     -1.00000000</i>
   <i name="DEG_THRESHOLD">      0.00200000</i>
   <i name="RTIME">     -0.10000000</i>
   <i name="WPLASMAI">      0.00000000</i>
   <v name="DFIELD">      0.00000000      0.00000000      0.00000000</v>
   <v name="WPLASMA">      0.00000000      0.00000000      0.00000000      0.00000000      0.00000000      0.00000000      0.00000000      0.00000000      0.00000000</v>
  </separator>
  <separator name="orbital magnetization" >
   <i type="logical" name="NUCIND"> F  </i>
   <v name="MAGPOS">      0.00000000      0.00000000      0.00000000</v>
   <i type="logical" name="LNICSALL"> T  </i>
   <i type="logical" name="ORBITALMAG"> F  </i>
   <i type="logical" name="LMAGBLOCH"> F  </i>
   <i type="logical" name="LCHIMAG"> F  </i>
   <i type="logical" name="LGAUGE"> T  </i>
   <i type="int" name="MAGATOM">     0</i>
   <v name="MAGDIPOL">      0.00000000      0.00000000      0.00000000</v>
   <v name="AVECCONST">      0.00000000      0.00000000      0.00000000</v>
  </separator>
  <separator name="response functions" >
   <i type="logical" name="LALL_IN_ONE"> F  </i>
   <i type="int" name="IALL_IN_ONE">    -1</i>
   <i type="int" name="NBANDS_WAVE">    -1</i>
   <i type="logical" name="LFINITE_TEMPERATURE"> F  </i>
   <i type="logical" name="LADDER"> F  </i>
   <i type="logical" name="LRPAFORCE"> F  </i>
   <i type="logical" name="LFXC"> F  </i>
   <i type="logical" name="LHARTREE"> T  </i>
   <i type="int" name="IBSE">     0</i>
   <v type="int" name="KPOINT">    -1     0     0     0</v>
   <i type="logical" name="LTCTC"> F  </i>
   <i type="logical" name="LTCTE"> F  </i>
   <i type="logical" name="LTETE"> F  </i>
   <i type="logical" name="LTRIPLET"> F  </i>
   <i type="logical" name="LFXCEPS"> F  </i>
   <i type="logical" name="LFXHEG"> F  </i>
   <i type="int" name="NATURALO">     2</i>
   <i type="logical" name="LHOLEGF"> F  </i>
   <i type="logical" name="L2ORDER"> F  </i>
   <i type="logical" name="LDMP1"> F  </i>
   <i type="logical" name="LMP2LT"> F  </i>
   <i type="logical" name="LSMP2LT"> F  </i>
   <i type="logical" name="LGWLF"> F  </i>
   <i name="ENCUTGW">     -1.60000002</i>
   <i name="ENCUTGWSOFT">     -1.60000002</i>
   <i name="ENCUTLF">     -1.00000000</i>
   <i type="logical" name="ESF_SPLINES"> F  </i>
   <i name="ESF_CONV">      0.01000000</i>
   <i type="int" name="ESF_NINTER">    15</i>
   <i type="int" name="LMAXMP2">    -1</i>
   <i name="SCISSOR">      0.00000000</i>
   <i type="int" name="NOMEGA">     0</i>
   <i type="int" name="NOMEGAR">     0</i>
   <i type="int" name="NBANDSGW">    -1</i>
   <i type="int" name="NBANDSO">    -1</i>
   <i type="int" name="NBANDSV">    -1</i>
   <i type="int" name="NELMGW">     1</i>
   <i type="int" name="NELMHF">     1</i>
   <i type="int" name="DIM">     3</i>
   <i type="int" name="IESPILON">     4</i>
   <i type="int" name="ANTIRES">     0</i>
   <i name="OMEGAMAX">    -30.00000000</i>
   <i name="OMEGAMIN">    -30.00000000</i>
   <i name="OMEGATL">   -200.00000000</i>
   <i type="int" name="OMEGAGRID">     0</i>
   <i name="CSHIFT">     -0.10000000</i>
   <i type="logical" name="LSELFENERGY"> F  </i>
   <i type="logical" name="LSPECTRAL"> F  </i>
   <i type="logical" name="LSPECTRALGW"> F  </i>
   <i type="logical" name="LSINGLES"> F  </i>
   <i type="logical" name="LFERMIGW"> F  </i>
   <i type="logical" name="ODDONLYGW"> F  </i>
   <i type="logical" name="EVENONLYGW"> F  </i>
   <i type="int" name="NKREDLFX">     1</i>
   <i type="int" name="NKREDLFY">     1</i>
   <i type="int" name="NKREDLFZ">     1</i>
   <i type="int" name="MAXMEM">  2800</i>
   <i type="int" name="TELESCOPE">     0</i>
   <i type="int" name="NTAUPAR">    -1</i>
   <i type="int" name="NOMEGAPAR">    -1</i>
   <i name="DAMP_NEWTON">      0.80000001</i>
   <i name="LAMBDA">      1.00000000</i>
  </separator>
  <separator name="External order field" >
   <i name="OFIELD_KAPPA">      0.00000000</i>
   <v name="OFIELD_K">      0.00000000      0.00000000      0.00000000</v>
   <i name="OFIELD_Q6_NEAR">      0.00000000</i>
   <i name="OFIELD_Q6_FAR">      0.00000000</i>
   <i name="OFIELD_A">      0.00000000</i>
  </separator>
  <separator name="optional k-points parameters" >
   <i type="int" name="KPOINTS_OPT_MODE">     1</i>
   <i type="logical" name="LKPOINTS_OPT"> F  </i>
  </separator>
 </parameters>
 <atominfo>
  <atoms>       4 </atoms>
  <types>       3 </types>
  <array name="atoms" >
   <dimension dim="1">ion</dimension>
   <field type="string">element</field>
   <field type="int">atomtype</field>
   <set>
    <rc><c>Ba</c><c>   1</c></rc>
    <rc><c>Zr</c><c>   2</c></rc>
    <rc><c>O </c><c>   3</c></rc>
    <rc><c>O </c><c>   3</c></rc>
   </set>
  </array>
  <array name="atomtypes" >
   <dimension dim="1">type</dimension>
   <field type="int">atomspertype</field>
   <field type="string">element</field>
   <field>mass</field>
   <field>valence</field>
   <field type="string">pseudopotential</field>
   <set>
    <rc><c>   1</c><c>Ba</c><c>    137.32700000</c><c>     10.00000000</c><c>  PAW_PBE Ba_sv 06Sep2000               </c></rc>
    <rc><c>   1</c><c>Zr</c><c>     91.22400000</c><c>     12.00000000</c><c>  PAW_PBE Zr_sv 04Jan2005               </c></rc>
    <rc><c>   2</c><c>O </c><c>     16.00000000</c><c>      6.00000000</c><c>  PAW_PBE O 08Apr2002                   </c></rc>
   </set>
  </array>
 </atominfo>
 <structure name="initialpos" >
  <crystal>
   <varray name="basis" >
    <v>       4.19200000       0.00000000       0.00000000 </v>
    <v>       0.00000000       4.19200000       0.00000000 </v>
    <v>       0.00000000       0.00000000       4.19200000 </v>
   </varray>
   <i name="volume">     73.66544589 </i>
   <varray name="rec_basis" >
    <v>       0.23854962       0.00000000       0.00000000 </v>
    <v>       0.00000000       0.23854962       0.00000000 </v>
    <v>       0.00000000       0.00000000       0.23854962 </v>
   </varray>
  </crystal>
  <varray name="positions" >
   <v>       0.00000000       0.00000000       0.00000000 </v>
   <v>       0.50000000       0.50000000       0.50000000 </v>
   <v>       0.50000000       0.00000000       0.50000000 </v>
   <v>       0.00000000       0.50000000       0.50000000 </v>
  </varray>
 </structure>
 <calculation>
  <scstep>
   <time name="dav">    0.03    0.03</time>
   <time name="total">    0.04    0.04</time>
   <energy>
    <i name="alphaZ">    193.60222308 </i>
    <i name="ewald">  -2230.08783499 </i>
    <i name="hartreedc">   -641.90256918 </i>
    <i name="XCdc">    130.96739852 </i>
    <i name="pawpsdc">   2214.50277941 </i>
    <i name="pawaedc">  -2196.50510371 </i>
    <i name="eentropy">      0.01159583 </i>
    <i name="bandstr">   -229.09913497 </i>
    <i name="atom">   2849.59541854 </i>
    <i name="e_fr_energy">     91.08477252 </i>
    <i name="e_wo_entrp">     91.07317669 </i>
    <i name="e_0_energy">     91.08090724 </i>
   </energy>
  </scstep>
  <scstep>
   <time name="dav">    0.03    0.03</time>
   <time name="total">    0.03    0.03</time>
   <energy>
    <i name="e_fr_energy">    -32.44257116 </i>
    <i name="e_wo_entrp">    -32.45416697 </i>
    <i name="e_0_energy">    -32.44643643 </i>
   </energy>
  </scstep>
  <scstep>
   <time name="dav">    0.01    0.02</time>
   <time name="total">    0.01    0.02</time>
   <energy>
    <i name="e_fr_energy">    -32.85728022 </i>
    <i name="e_wo_entrp">    -32.86887603 </i>
    <i name="e_0_energy">    -32.86114549 </i>
   </energy>
  </scstep>
  <scstep>
   <time name="dav">    0.04    0.05</time>
   <time name="total">    0.04    0.05</time>
   <energy>
    <i name="e_fr_energy">    -32.86080751 </i>
    <i name="e_wo_entrp">    -32.87240333 </i>
    <i name="e_0_energy">    -32.86467278 </i>
   </energy>
  </scstep>
  <scstep>
   <time name="dav">    0.01    0.02</time>
   <time name="total">    0.02    0.03</time>
   <energy>
    <i name="e_fr_energy">    -32.86080763 </i>
    <i name="e_wo_entrp">    -32.87240345 </i>
    <i name="e_0_energy">    -32.86467290 </i>
   </energy>
  </scstep>
  <scstep>
   <time name="dav">    0.01    0.01</time>
   <time name="total">    0.02    0.03</time>
   <energy>
    <i name="e_fr_energy">    -22.45469403 </i>
    <i name="e_wo_entrp">    -22.47788695 </i>
    <i name="e_0_energy">    -22.46242500 </i>
   </energy>
  </scstep>
  <scstep>
   <time name="dav">    0.02    0.02</time>
   <time name="total">    0.03    0.04</time>
   <energy>
    <i name="e_fr_energy">    -22.01209465 </i>
    <i name="e_wo_entrp">    -22.03528847 </i>
    <i name="e_0_energy">    -22.01982592 </i>
   </energy>
  </scstep>
  <scstep>
   <time name="dav">    0.02    0.02</time>
   <time name="total">    0.03    0.04</time>
   <energy>
    <i name="e_fr_energy">    -21.91568901 </i>
    <i name="e_wo_entrp">    -21.93888680 </i>
    <i name="e_0_energy">    -21.92342161 </i>
   </energy>
  </scstep>
  <scstep>
   <time name="dav">    0.01    0.01</time>
   <time name="total">    0.02    0.03</time>
   <energy>
    <i name="e_fr_energy">    -21.91796144 </i>
    <i name="e_wo_entrp">    -21.94115567 </i>
    <i name="e_0_energy">    -21.92569285 </i>
   </energy>
  </scstep>
  <scstep>
   <time name="dav">    0.02    0.02</time>
   <time name="total">    0.03    0.04</time>
   <energy>
    <i name="e_fr_energy">    -21.91846891 </i>
    <i name="e_wo_entrp">    -21.94166317 </i>
    <i name="e_0_energy">    -21.92620033 </i>
   </energy>
  </scstep>
  <scstep>
   <time name="dav">    0.01    0.01</time>
   <time name="total">    0.02    0.03</time>
   <energy>
    <i name="e_fr_energy">    -21.91862633 </i>
    <i name="e_wo_entrp">    -21.94182048 </i>
    <i name="e_0_energy">    -21.92635771 </i>
   </energy>
  </scstep>
  <scstep>
   <time name="dav">    0.01    0.01</time>
   <time name="total">    0.02    0.02</time>
   <energy>
    <i name="alphaZ">    193.60222308 </i>
    <i name="ewald">  -2230.08783499 </i>
    <i name="hartreedc">   -661.84887508 </i>
    <i name="XCdc">    132.99039407 </i>
    <i name="pawpsdc">   2867.18545136 </i>
    <i name="pawaedc">  -2854.44372045 </i>
    <i name="eentropy">      0.02319412 </i>
    <i name="bandstr">   -318.93487545 </i>
    <i name="atom">   2849.59541854 </i>
    <i name="e_fr_energy">    -21.91862479 </i>
    <i name="e_wo_entrp">    -21.94181892 </i>
    <i name="e_0_energy">    -21.92635617 </i>
   </energy>
  </scstep>
  <structure>
   <crystal>
    <varray name="basis" >
     <v>       4.19200000       0.00000000       0.00000000 </v>
     <v>       0.00000000       4.19200000       0.00000000 </v>
     <v>       0.00000000       0.00000000       4.19200000 </v>
    </varray>
    <i name="volume">     73.66544589 </i>
    <varray name="rec_basis" >
     <v>       0.23854962       0.00000000       0.00000000 </v>
     <v>       0.00000000       0.23854962       0.00000000 </v>
     <v>       0.00000000       0.00000000       0.23854962 </v>
    </varray>
   </crystal>
   <varray name="positions" >
    <v>       0.00000000       0.00000000       0.00000000 </v>
    <v>       0.50000000       0.50000000       0.50000000 </v>
    <v>       0.50000000       0.00000000       0.50000000 </v>
    <v>       0.00000000       0.50000000       0.50000000 </v>
   </varray>
  </structure>
  <varray name="forces" >
   <v>      -0.00000000       0.00000000      -0.00000000 </v>
   <v>       0.00000000      -0.00000000       0.00000000 </v>
   <v>      -0.00000000       0.00000000      -0.00000000 </v>
   <v>      -0.00000000       0.00000000       0.00000000 </v>
  </varray>
  <varray name="stress" >
   <v>     316.19370734       0.00000000      -0.00000000 </v>
   <v>       0.00000000     316.19370734      -0.00000000 </v>
   <v>       0.00000000       0.00000000     107.44473884 </v>
  </varray>
  <energy>
   <i name="e_fr_energy">    -21.91862479 </i>
   <i name="e_wo_entrp">    -21.94181892 </i>
   <i name="e_0_energy">    -21.92635617 </i>
  </energy>
  <time name="totalsc">    0.43    0.52</time>
  <eigenvalues>
   <array>
    <dimension dim="1">band</dimension>
    <dimension dim="2">kpoint</dimension>
    <dimension dim="3">spin</dimension>
    <field>eigene</field>
    <field>occ</field>
    <set>
     <set comment="spin 1">
      <set comment="kpoint 1">
       <r>  -45.9513    1.0000 </r>
       <r>  -23.9031    1.0000 </r>
       <r>  -23.9031    1.0000 </r>
       <r>  -23.7372    1.0000 </r>
       <r>  -22.0423    1.0000 </r>
       <r>  -11.6184    1.0000 </r>
       <r>  -11.3823    1.0000 </r>
       <r>   -7.1850    1.0000 </r>
       <r>   -7.1850    1.0000 </r>
       <r>   -7.0904    1.0000 </r>
       <r>    2.8914    1.0000 </r>
       <r>    3.0580    1.0000 </r>
       <r>    3.0580    1.0000 </r>
       <r>    3.4468    1.0000 </r>
       <r>    3.6573    1.0000 </r>
       <r>    4.2097    1.0000 </r>
       <r>    4.2097    1.0000 </r>
       <r>    5.4424   -0.0000 </r>
       <r>    5.5163   -0.0000 </r>
       <r>    5.5163   -0.0000 </r>
       <r>    7.9465   -0.0000 </r>
       <r>    8.5840    0.0000 </r>
       <r>    9.4066    0.0000 </r>
       <r>    9.6366    0.0000 </r>
       <r>   11.4999    0.0000 </r>
       <r>   11.5675    0.0000 </r>
       <r>   11.5675    0.0000 </r>
       <r>   13.8543    0.0000 </r>
       <r>   13.8543    0.0000 </r>
       <r>   15.9671    0.0000 </r>
       <r>   16.6996    0.0000 </r>
       <r>   20.7069    0.0000 </r>
       <r>   21.3098    0.0000 </r>
       <r>   21.3098    0.0000 </r>
       <r>   22.0535    0.0000 </r>
       <r>   22.8210    0.0000 </r>
       <r>   24.3998    0.0000 </r>
       <r>   24.5788    0.0000 </r>
       <r>   25.5886    0.0000 </r>
       <r>   26.1664    0.0000 </r>
      </set>
     </set>
    </set>
   </array>
  </eigenvalues>
  <separator name="orbital magnetization" >
   <v name="MAGDIPOLOUT">      0.00000000      0.00000000      0.00000000</v>
  </separator>
  <dos>
   <i name="efermi">      4.37806130 </i>
   <total>
    <array>
     <dimension dim="1">gridpoints</dimension>
     <dimension dim="2">spin</dimension>
     <field>energy</field>
     <field>total</field>
     <field>integrated</field>
     <set>
      <set comment="spin 1">
       <r>   -49.5572     0.0000     0.0000 </r>
       <r>   -49.2928     0.0000     0.0000 </r>
       <r>   -49.0283     0.0000     0.0000 </r>
       <r>   -48.7639     0.0000     0.0000 </r>
       <r>   -48.4995     0.0000     0.0000 </r>
       <r>   -48.2350     0.0000     0.0000 </r>
       <r>   -47.9706     0.0000     0.0000 </r>
       <r>   -47.7062    -0.0000    -0.0000 </r>
       <r>   -47.4417    -0.0000    -0.0000 </r>
       <r>   -47.1773    -0.0000    -0.0000 </r>
       <r>   -46.9129    -0.0000    -0.0000 </r>
       <r>   -46.6485    -0.0000    -0.0000 </r>
       <r>   -46.3840    -0.0344    -0.0091 </r>
       <r>   -46.1196     0.0353     0.0002 </r>
       <r>   -45.8552     6.4988     1.7187 </r>
       <r>   -45.5907     1.1720     2.0286 </r>
       <r>   -45.3263    -0.1080     2.0001 </r>
       <r>   -45.0619    -0.0003     2.0000 </r>
       <r>   -44.7974    -0.0000     2.0000 </r>
       <r>   -44.5330    -0.0000     2.0000 </r>
       <r>   -44.2686     0.0000     2.0000 </r>
       <r>   -44.0041     0.0000     2.0000 </r>
       <r>   -43.7397     0.0000     2.0000 </r>
       <r>   -43.4753     0.0000     2.0000 </r>
       <r>   -43.2108     0.0000     2.0000 </r>
       <r>   -42.9464     0.0000     2.0000 </r>
       <r>   -42.6820     0.0000     2.0000 </r>
       <r>   -42.4175     0.0000     2.0000 </r>
       <r>   -42.1531     0.0000     2.0000 </r>
       <r>   -41.8887     0.0000     2.0000 </r>
       <r>   -41.6242     0.0000     2.0000 </r>
       <r>   -41.3598     0.0000     2.0000 </r>
       <r>   -41.0954     0.0000     2.0000 </r>
       <r>   -40.8310     0.0000     2.0000 </r>
       <r>   -40.5665     0.0000     2.0000 </r>
       <r>   -40.3021     0.0000     2.0000 </r>
       <r>   -40.0377     0.0000     2.0000 </r>
       <r>   -39.7732     0.0000     2.0000 </r>
       <r>   -39.5088     0.0000     2.0000 </r>
       <r>   -39.2444     0.0000     2.0000 </r>
       <r>   -38.9799     0.0000     2.0000 </r>
       <r>   -38.7155     0.0000     2.0000 </r>
       <r>   -38.4511     0.0000     2.0000 </r>
       <r>   -38.1866     0.0000     2.0000 </r>
       <r>   -37.9222     0.0000     2.0000 </r>
       <r>   -37.6578     0.0000     2.0000 </r>
       <r>   -37.3933     0.0000     2.0000 </r>
       <r>   -37.1289     0.0000     2.0000 </r>
       <r>   -36.8645     0.0000     2.0000 </r>
       <r>   -36.6000     0.0000     2.0000 </r>
       <r>   -36.3356     0.0000     2.0000 </r>
       <r>   -36.0712     0.0000     2.0000 </r>
       <r>   -35.8068     0.0000     2.0000 </r>
       <r>   -35.5423     0.0000     2.0000 </r>
       <r>   -35.2779     0.0000     2.0000 </r>
       <r>   -35.0135     0.0000     2.0000 </r>
       <r>   -34.7490     0.0000     2.0000 </r>
       <r>   -34.4846     0.0000     2.0000 </r>
       <r>   -34.2202     0.0000     2.0000 </r>
       <r>   -33.9557     0.0000     2.0000 </r>
       <r>   -33.6913     0.0000     2.0000 </r>
       <r>   -33.4269     0.0000     2.0000 </r>
       <r>   -33.1624     0.0000     2.0000 </r>
       <r>   -32.8980     0.0000     2.0000 </r>
       <r>   -32.6336     0.0000     2.0000 </r>
       <r>   -32.3691     0.0000     2.0000 </r>
       <r>   -32.1047     0.0000     2.0000 </r>
       <r>   -31.8403     0.0000     2.0000 </r>
       <r>   -31.5758     0.0000     2.0000 </r>
       <r>   -31.3114     0.0000     2.0000 </r>
       <r>   -31.0470     0.0000     2.0000 </r>
       <r>   -30.7826     0.0000     2.0000 </r>
       <r>   -30.5181     0.0000     2.0000 </r>
       <r>   -30.2537     0.0000     2.0000 </r>
       <r>   -29.9893     0.0000     2.0000 </r>
       <r>   -29.7248     0.0000     2.0000 </r>
       <r>   -29.4604     0.0000     2.0000 </r>
       <r>   -29.1960     0.0000     2.0000 </r>
       <r>   -28.9315     0.0000     2.0000 </r>
       <r>   -28.6671     0.0000     2.0000 </r>
       <r>   -28.4027     0.0000     2.0000 </r>
       <r>   -28.1382     0.0000     2.0000 </r>
       <r>   -27.8738     0.0000     2.0000 </r>
       <r>   -27.6094     0.0000     2.0000 </r>
       <r>   -27.3449     0.0000     2.0000 </r>
       <r>   -27.0805     0.0000     2.0000 </r>
       <r>   -26.8161     0.0000     2.0000 </r>
       <r>   -26.5516     0.0000     2.0000 </r>
       <r>   -26.2872     0.0000     2.0000 </r>
       <r>   -26.0228     0.0000     2.0000 </r>
       <r>   -25.7583    -0.0000     2.0000 </r>
       <r>   -25.4939    -0.0000     2.0000 </r>
       <r>   -25.2295    -0.0000     2.0000 </r>
       <r>   -24.9651    -0.0000     2.0000 </r>
       <r>   -24.7006    -0.0000     2.0000 </r>
       <r>   -24.4362    -0.0081     1.9978 </r>
       <r>   -24.1718    -0.5338     1.8567 </r>
       <r>   -23.9073     7.8214     3.9249 </r>
       <r>   -23.6429    14.8306     7.8466 </r>
       <r>   -23.3785     0.7010     8.0320 </r>
       <r>   -23.1140    -0.1206     8.0001 </r>
       <r>   -22.8496    -0.0004     8.0000 </r>
       <r>   -22.5852    -0.0032     7.9992 </r>
       <r>   -22.3207    -0.2393     7.9359 </r>
       <r>   -22.0563     3.5775     8.8819 </r>
       <r>   -21.7919     4.4957    10.0707 </r>
       <r>   -21.5274    -0.2611    10.0017 </r>
       <r>   -21.2630    -0.0062    10.0000 </r>
       <r>   -20.9986    -0.0000    10.0000 </r>
       <r>   -20.7341    -0.0000    10.0000 </r>
       <r>   -20.4697     0.0000    10.0000 </r>
       <r>   -20.2053     0.0000    10.0000 </r>
       <r>   -19.9409     0.0000    10.0000 </r>
       <r>   -19.6764     0.0000    10.0000 </r>
       <r>   -19.4120     0.0000    10.0000 </r>
       <r>   -19.1476     0.0000    10.0000 </r>
       <r>   -18.8831     0.0000    10.0000 </r>
       <r>   -18.6187     0.0000    10.0000 </r>
       <r>   -18.3543     0.0000    10.0000 </r>
       <r>   -18.0898     0.0000    10.0000 </r>
       <r>   -17.8254     0.0000    10.0000 </r>
       <r>   -17.5610     0.0000    10.0000 </r>
       <r>   -17.2965     0.0000    10.0000 </r>
       <r>   -17.0321     0.0000    10.0000 </r>
       <r>   -16.7677     0.0000    10.0000 </r>
       <r>   -16.5032     0.0000    10.0000 </r>
       <r>   -16.2388     0.0000    10.0000 </r>
       <r>   -15.9744     0.0000    10.0000 </r>
       <r>   -15.7099     0.0000    10.0000 </r>
       <r>   -15.4455     0.0000    10.0000 </r>
       <r>   -15.1811     0.0000    10.0000 </r>
       <r>   -14.9166     0.0000    10.0000 </r>
       <r>   -14.6522     0.0000    10.0000 </r>
       <r>   -14.3878     0.0000    10.0000 </r>
       <r>   -14.1234     0.0000    10.0000 </r>
       <r>   -13.8589     0.0000    10.0000 </r>
       <r>   -13.5945     0.0000    10.0000 </r>
       <r>   -13.3301    -0.0000    10.0000 </r>
       <r>   -13.0656    -0.0000    10.0000 </r>
       <r>   -12.8012    -0.0000    10.0000 </r>
       <r>   -12.5368    -0.0000    10.0000 </r>
       <r>   -12.2723    -0.0001    10.0000 </r>
       <r>   -12.0079    -0.0716     9.9810 </r>
       <r>   -11.7435     0.4857    10.1095 </r>
       <r>   -11.4790     7.8896    12.1957 </r>
       <r>   -11.2146     6.8747    14.0136 </r>
       <r>   -10.9502    -0.0166    14.0092 </r>
       <r>   -10.6857    -0.0348    14.0000 </r>
       <r>   -10.4213    -0.0000    14.0000 </r>
       <r>   -10.1569    -0.0000    14.0000 </r>
       <r>    -9.8924     0.0000    14.0000 </r>
       <r>    -9.6280     0.0000    14.0000 </r>
       <r>    -9.3636     0.0000    14.0000 </r>
       <r>    -9.0992     0.0000    14.0000 </r>
       <r>    -8.8347    -0.0000    14.0000 </r>
       <r>    -8.5703    -0.0000    14.0000 </r>
       <r>    -8.3059    -0.0000    14.0000 </r>
       <r>    -8.0414    -0.0000    14.0000 </r>
       <r>    -7.7770    -0.0018    13.9995 </r>
       <r>    -7.5126    -0.3624    13.9037 </r>
       <r>    -7.2481     4.2000    15.0143 </r>
       <r>    -6.9837    18.3966    19.8789 </r>
       <r>    -6.7193     0.5879    20.0344 </r>
       <r>    -6.4548    -0.1298    20.0001 </r>
       <r>    -6.1904    -0.0003    20.0000 </r>
       <r>    -5.9260    -0.0000    20.0000 </r>
       <r>    -5.6615    -0.0000    20.0000 </r>
       <r>    -5.3971     0.0000    20.0000 </r>
       <r>    -5.1327     0.0000    20.0000 </r>
       <r>    -4.8682     0.0000    20.0000 </r>
       <r>    -4.6038     0.0000    20.0000 </r>
       <r>    -4.3394     0.0000    20.0000 </r>
       <r>    -4.0750     0.0000    20.0000 </r>
       <r>    -3.8105     0.0000    20.0000 </r>
       <r>    -3.5461     0.0000    20.0000 </r>
       <r>    -3.2817     0.0000    20.0000 </r>
       <r>    -3.0172     0.0000    20.0000 </r>
       <r>    -2.7528     0.0000    20.0000 </r>
       <r>    -2.4884     0.0000    20.0000 </r>
       <r>    -2.2239     0.0000    20.0000 </r>
       <r>    -1.9595     0.0000    20.0000 </r>
       <r>    -1.6951     0.0000    20.0000 </r>
       <r>    -1.4306     0.0000    20.0000 </r>
       <r>    -1.1662     0.0000    20.0000 </r>
       <r>    -0.9018     0.0000    20.0000 </r>
       <r>    -0.6373     0.0000    20.0000 </r>
       <r>    -0.3729     0.0000    20.0000 </r>
       <r>    -0.1085     0.0000    20.0000 </r>
       <r>     0.1560     0.0000    20.0000 </r>
       <r>     0.4204     0.0000    20.0000 </r>
       <r>     0.6848     0.0000    20.0000 </r>
       <r>     0.9493     0.0000    20.0000 </r>
       <r>     1.2137    -0.0000    20.0000 </r>
       <r>     1.4781    -0.0000    20.0000 </r>
       <r>     1.7425    -0.0000    20.0000 </r>
       <r>     2.0070    -0.0000    20.0000 </r>
       <r>     2.2714    -0.0004    19.9999 </r>
       <r>     2.5358    -0.1258    19.9666 </r>
       <r>     2.8003     0.7721    20.1708 </r>
       <r>     3.0647    14.8711    24.1032 </r>
       <r>     3.3291     8.1933    26.2697 </r>
       <r>     3.5936     8.1839    28.4338 </r>
       <r>     3.8580     5.9224    29.9999 </r>
       <r>     4.1224     2.5432    30.6724 </r>
       <r>     4.3869    12.7182    34.0355 </r>
       <r>     4.6513    -0.0759    34.0154 </r>
       <r>     4.9157    -0.0644    33.9984 </r>
       <r>     5.1802    -0.5478    33.8535 </r>
       <r>     5.4446     7.6916    35.8874 </r>
       <r>     5.7090    16.1255    40.1515 </r>
       <r>     5.9735    -0.5256    40.0125 </r>
       <r>     6.2379    -0.0474    40.0000 </r>
       <r>     6.5023    -0.0000    40.0000 </r>
       <r>     6.7667    -0.0000    40.0000 </r>
       <r>     7.0312    -0.0000    40.0000 </r>
       <r>     7.2956    -0.0002    40.0000 </r>
       <r>     7.5600    -0.0746    39.9802 </r>
       <r>     7.8245     0.6456    40.1509 </r>
       <r>     8.0889     6.7104    41.9254 </r>
       <r>     8.3533     0.0746    41.9451 </r>
       <r>     8.6178     5.0526    43.2812 </r>
       <r>     8.8822     2.9256    44.0548 </r>
       <r>     9.1466    -0.4785    43.9283 </r>
       <r>     9.4111     3.9406    44.9703 </r>
       <r>     9.6755     9.1495    47.3897 </r>
       <r>     9.9399     2.5155    48.0549 </r>
       <r>    10.2044    -0.2058    48.0004 </r>
       <r>    10.4688    -0.0017    48.0000 </r>
       <r>    10.7332    -0.0000    48.0000 </r>
       <r>    10.9977    -0.0115    47.9969 </r>
       <r>    11.2621    -0.6550    47.8237 </r>
       <r>    11.5265    10.2949    50.5461 </r>
       <r>    11.7910    13.7910    54.1928 </r>
       <r>    12.0554    -0.7040    54.0067 </r>
       <r>    12.3198    -0.0252    54.0000 </r>
       <r>    12.5842    -0.0000    54.0000 </r>
       <r>    12.8487    -0.0000    54.0000 </r>
       <r>    13.1131    -0.0000    54.0000 </r>
       <r>    13.3775    -0.0289    53.9923 </r>
       <r>    13.6420    -0.4311    53.8783 </r>
       <r>    13.9064    11.2335    56.8488 </r>
       <r>    14.1708     4.7146    58.0955 </r>
       <r>    14.4353    -0.3588    58.0006 </r>
       <r>    14.6997    -0.0024    58.0000 </r>
       <r>    14.9641    -0.0000    58.0000 </r>
       <r>    15.2286    -0.0000    58.0000 </r>
       <r>    15.4930    -0.0153    57.9959 </r>
       <r>    15.7574    -0.2073    57.9411 </r>
       <r>    16.0219     5.6867    59.4449 </r>
       <r>    16.2863     2.2267    60.0337 </r>
       <r>    16.5507     0.0673    60.0515 </r>
       <r>    16.8152     6.6865    61.8196 </r>
       <r>    17.0796     0.7646    62.0218 </r>
       <r>    17.3440    -0.0822    62.0001 </r>
       <r>    17.6084    -0.0002    62.0000 </r>
       <r>    17.8729    -0.0000    62.0000 </r>
       <r>    18.1373    -0.0000    62.0000 </r>
       <r>    18.4017     0.0000    62.0000 </r>
       <r>    18.6662     0.0000    62.0000 </r>
       <r>    18.9306    -0.0000    62.0000 </r>
       <r>    19.1950    -0.0000    62.0000 </r>
       <r>    19.4595    -0.0000    62.0000 </r>
       <r>    19.7239    -0.0000    62.0000 </r>
       <r>    19.9883    -0.0000    62.0000 </r>
       <r>    20.2528    -0.0229    61.9939 </r>
       <r>    20.5172    -0.1200    61.9622 </r>
       <r>    20.7816     6.1330    63.5839 </r>
       <r>    21.0461     1.1966    63.9004 </r>
       <r>    21.3105     7.9869    66.0124 </r>
       <r>    21.5749     8.0184    68.1327 </r>
       <r>    21.8394    -0.7275    67.9403 </r>
       <r>    22.1038     5.5607    69.4107 </r>
       <r>    22.3682     2.3886    70.0424 </r>
       <r>    22.6326    -0.2948    69.9644 </r>
       <r>    22.8971     6.1675    71.5953 </r>
       <r>    23.1615     1.6699    72.0369 </r>
       <r>    23.4259    -0.1388    72.0002 </r>
       <r>    23.6904    -0.0006    72.0000 </r>
       <r>    23.9548    -0.0277    71.9927 </r>
       <r>    24.2192    -0.1720    71.9472 </r>
       <r>    24.4837     7.5070    73.9323 </r>
       <r>    24.7481     7.9539    76.0356 </r>
       <r>    25.0125    -0.1015    76.0087 </r>
       <r>    25.2770    -0.2220    75.9500 </r>
       <r>    25.5414     2.5066    76.6128 </r>
       <r>    25.8058     5.3790    78.0352 </r>
       <r>    26.0703     0.9436    78.2847 </r>
       <r>    26.3347     6.4858    79.9998 </r>
       <r>    26.5991     0.0353    80.0091 </r>
       <r>    26.8636    -0.0344    80.0000 </r>
       <r>    27.1280    -0.0000    80.0000 </r>
       <r>    27.3924    -0.0000    80.0000 </r>
       <r>    27.6569     0.0000    80.0000 </r>
       <r>    27.9213     0.0000    80.0000 </r>
       <r>    28.1857     0.0000    80.0000 </r>
       <r>    28.4501     0.0000    80.0000 </r>
       <r>    28.7146     0.0000    80.0000 </r>
       <r>    28.9790     0.0000    80.0000 </r>
       <r>    29.2434     0.0000    80.0000 </r>
       <r>    29.5079     0.0000    80.0000 </r>
       <r>    29.7723     0.0000    80.0000 </r>
      </set>
     </set>
    </array>
   </total>
  </dos>
 </calculation>
 <structure name="finalpos" >
  <crystal>
   <varray name="basis" >
    <v>       4.19200000       0.00000000       0.00000000 </v>
    <v>       0.00000000       4.19200000       0.00000000 </v>
    <v>       0.00000000       0.00000000       4.19200000 </v>
   </varray>
   <i name="volume">     73.66544589 </i>
   <varray name="rec_basis" >
    <v>       0.23854962       0.00000000       0.00000000 </v>
    <v>       0.00000000       0.23854962       0.00000000 </v>
    <v>       0.00000000       0.00000000       0.23854962 </v>
   </varray>
  </crystal>
  <varray name="positions" >
   <v>       0.00000000       0.00000000       0.00000000 </v>
   <v>       0.50000000       0.50000000       0.50000000 </v>
   <v>       0.50000000       0.00000000       0.50000000 </v>
   <v>       0.00000000       0.50000000       0.50000000 </v>
  </varray>
 </structure>
</modeling>
