 running   40 mpi-ranks, on    1 nodes
 distrk:  each k-point on   40 cores,    1 groups
 distr:  one band on    1 cores,   40 groups
 vasp.6.4.3 19Mar24 (build Jul 09 2024 15:45:28) complex                        
  
 POSCAR found type information on POSCAR BaZrO 
 POSCAR found :  3 types and       4 ions
 scaLAPACK will be used
 -----------------------------------------------------------------------------
|                                                                             |
|           W    W    AA    RRRRR   N    N  II  N    N   GGGG   !!!           |
|           W    W   A  A   R    R  NN   N  II  NN   N  G    G  !!!           |
|           W    W  A    A  R    R  N N  N  II  N N  N  G       !!!           |
|           W WW W  AAAAAA  RRRRR   N  N N  II  N  N N  G  GGG   !            |
|           WW  WW  A    A  R   R   N   NN  II  N   NN  G    G                |
|           W    W  A    A  R    R  N    N  II  N    N   GGGG   !!!           |
|                                                                             |
|     For optimal performance we recommend to set                             |
|       NCORE = 2 up to number-of-cores-per-socket                            |
|     NCORE specifies how many cores store one orbital (NPAR=cpu/NCORE).      |
|     This setting can greatly improve the performance of VASP for DFT.       |
|     The default, NCORE=1 might be grossly inefficient on modern             |
|     multi-core architectures or massively parallel machines. Do your        |
|     own testing! More info at https://www.vasp.at/wiki/index.php/NCORE      |
|     Unfortunately you need to use the default for GW and RPA                |
|     calculations (for HF NCORE is supported but not extensively tested      |
|     yet).                                                                   |
|                                                                             |
 -----------------------------------------------------------------------------

 LDA part: xc-table for (Slater+PW92), standard interpolation
 POSCAR found type information on POSCAR BaZrO 
 POSCAR found :  3 types and       4 ions
 POSCAR, INCAR and KPOINTS ok, starting setup
 FFT: planning ... GRIDC
 FFT: planning ... GRID_SOFT
 FFT: planning ... GRID
 WAVECAR not read
 entering main loop
       N       E                     dE             d eps       ncg     rms          rms(c)
DAV:   1     0.910847725162E+02    0.91085E+02   -0.18456E+04    80   0.666E+02
DAV:   2    -0.324425711576E+02   -0.12353E+03   -0.12353E+03   120   0.142E+02
DAV:   3    -0.328572802175E+02   -0.41471E+00   -0.41471E+00    80   0.106E+01
DAV:   4    -0.328608075143E+02   -0.35273E-02   -0.35273E-02   160   0.558E-01
DAV:   5    -0.328608076347E+02   -0.12035E-06   -0.12003E-06    80   0.322E-03    0.190E+01
DAV:   6    -0.224546940262E+02    0.10406E+02   -0.50655E+01    80   0.216E+01    0.763E+00
DAV:   7    -0.220120946494E+02    0.44260E+00   -0.84829E-01   120   0.339E+00    0.450E+00
DAV:   8    -0.219156890131E+02    0.96406E-01   -0.53428E-01   120   0.282E+00    0.921E-01
DAV:   9    -0.219179614385E+02   -0.22724E-02   -0.41509E-02    80   0.790E-01    0.224E-01
DAV:  10    -0.219184689118E+02   -0.50747E-03   -0.19089E-03   120   0.195E-01    0.789E-02
DAV:  11    -0.219186263331E+02   -0.15742E-03   -0.23208E-04    80   0.701E-02    0.162E-02
DAV:  12    -0.219186247936E+02    0.15395E-05   -0.19649E-05    40   0.167E-02
   1 F= -.21918625E+02 E0= -.21926356E+02  d E =0.231941E-01
 writing wavefunctions
