103
Lattice="13.791603039053763 -1.1704809832993197e-07 6.703336656169091e-07 6.895801418160254 11.94387930607876 1.6811462701697e-06 0.0 0.0 37.15135978955718" Properties=species:S:1:pos:R:3:tags:I:1:initial_magmoms:R:1:forces:R:3 energy=-593.30810546875 free_energy=-593.30810546875 stress="0.009259529555515006 -2.5766825774747288e-05 -7.53203445663651e-05 -2.5766825774747288e-05 0.009227540047439503 -1.134738468715207e-05 -7.53203445663651e-05 -1.134738468715207e-05 0.0012651921500241687" pbc="T T T"
Pt       0.00000004       0.00000003       0.00000000        0       0.00000000       0.00040907      -0.00042755       0.14853206
Pt       2.75832052       0.00000002       0.00000029        0       0.00000000       0.00250913      -0.00319380       0.13746533
Pt       5.51664114      -0.00000007       0.00000030        0       0.00000000      -0.00163290      -0.00066254       0.13483593
Pt       8.27496177      -0.00000001       0.00000044        0       0.00000000       0.00206676       0.00046366       0.13463697
Pt      11.03328250      -0.00000006       0.00000064        0       0.00000000       0.00080603      -0.00299893       0.13200298
Pt       1.37916020       2.38877583       0.00000036        0       0.00000000      -0.00057725       0.00324723       0.13377255
Pt       4.13748100       2.38877577       0.00000041        0       0.00000000       0.00068662       0.00103462       0.12866646
Pt       6.89580149       2.38877583       0.00000074        0       0.00000000       0.00095089       0.00009260       0.13101065
Pt       9.65412211       2.38877585       0.00000086        0       0.00000000       0.00117306      -0.00005923       0.13118842
Pt      12.41244274       2.38877574       0.00000096        0       0.00000000       0.00295059       0.00223286       0.13050526
Pt       2.75832046       4.77755174       0.00000071        0       0.00000000      -0.00043459      -0.00016696       0.13198185
Pt       5.51664125       4.77755168       0.00000096        0       0.00000000       0.00041850      -0.00096005       0.13321349
Pt       8.27496176       4.77755177       0.00000087        0       0.00000000       0.00119673       0.00020148       0.13147098
Pt      11.03328240       4.77755159       0.00000113        0       0.00000000       0.00205404      -0.00189540       0.13368207
Pt      13.79160305       4.77755159       0.00000129        0       0.00000000       0.00180336       0.00500965       0.12478700
Pt       4.13748079       7.16632756       0.00000111        0       0.00000000       0.00181120       0.00166503       0.13355511
Pt       6.89580146       7.16632759       0.00000109        0       0.00000000       0.00192569       0.00112824       0.13266993
Pt       9.65412208       7.16632755       0.00000130        0       0.00000000       0.00000349       0.00160543       0.13211390
Pt      12.41244264       7.16632749       0.00000147        0       0.00000000       0.00065721       0.00100888       0.13375425
Pt      15.17076330       7.16632753       0.00000168        0       0.00000000       0.00095831       0.00155225       0.13056311
Pt       5.51664133       9.55510348       0.00000140        0       0.00000000      -0.00317456       0.00049528       0.13033798
Pt       8.27496170       9.55510347       0.00000156        0       0.00000000       0.00299065       0.00104210       0.12997735
Pt      11.03328233       9.55510332       0.00000163        0       0.00000000       0.00645560      -0.00144702       0.12420604
Pt      13.79160294       9.55510332       0.00000180        0       0.00000000       0.00334098      -0.00097455       0.12882909
Pt      16.54992351       9.55510324       0.00000197        0       0.00000000      -0.00378312      -0.00288128       0.12291521
Pt       1.37916046       0.79625891       2.38854322        1       0.00000000      -0.03473479      -0.03071069      -0.04903374
Pt       4.13748118       0.79625904       2.38854321        1       0.00000000      -0.01597818      -0.01801232      -0.13305810
Pt       6.89580177       0.79625874       2.38854312        1       0.00000000      -0.00421070      -0.00413358      -0.15148433
Pt       9.65412216       0.79625869       2.38854340        1       0.00000000      -0.00702692      -0.00303046      -0.16225056
Pt      12.41244283       0.79625878       2.38854371        1       0.00000000       0.04059551      -0.02640380      -0.07799424
Pt       2.75832072       3.18503486       2.38854320        1       0.00000000      -0.01088938      -0.00529136      -0.14594235
Pt       5.51664121       3.18503462       2.38854355        1       0.00000000      -0.00641626       0.00147694      -0.14464213
Pt       8.27496190       3.18503470       2.38854341        1       0.00000000      -0.00432544      -0.00146031      -0.13513339
Pt      11.03328255       3.18503481       2.38854380        1       0.00000000      -0.00237504       0.00198511      -0.15651619
Pt      13.79160321       3.18503467       2.38854404        1       0.00000000       0.00136341      -0.02674557      -0.13314608
Pt       4.13748100       5.57381065       2.38854369        1       0.00000000      -0.00597217      -0.00302157      -0.14414005
Pt       6.89580173       5.57381054       2.38854381        1       0.00000000      -0.00590250      -0.00027874      -0.14006081
Pt       9.65412207       5.57381056       2.38854394        1       0.00000000      -0.00528721      -0.00200236      -0.14276725
Pt      12.41244279       5.57381062       2.38854397        1       0.00000000       0.00009284      -0.00626965      -0.14129551
Pt      15.17076346       5.57381055       2.38854403        1       0.00000000      -0.00715840      -0.01725126      -0.12580371
Pt       5.51664151       7.96258644       2.38854405        1       0.00000000      -0.00745781       0.00133642      -0.15528950
Pt       8.27496191       7.96258639       2.38854430        1       0.00000000      -0.00692982      -0.00235203      -0.16602823
Pt      11.03328242       7.96258650       2.38854453        1       0.00000000      -0.00252716       0.00407152      -0.14728731
Pt      13.79160307       7.96258652       2.38854447        1       0.00000000      -0.00545860      -0.00071406      -0.14050145
Pt      16.54992363       7.96258639       2.38854479        1       0.00000000      -0.00384188       0.00231792      -0.13892201
Pt       6.89580146      10.35136231       2.38854445        1       0.00000000       0.00055963       0.05116823      -0.07318415
Pt       9.65412211      10.35136230       2.38854437        1       0.00000000      -0.02191167       0.03142499      -0.11617124
Pt      12.41244281      10.35136234       2.38854469        1       0.00000000      -0.01838516       0.00315765      -0.13657385
Pt      15.17076345      10.35136224       2.38854446        1       0.00000000      -0.00415927      -0.00294165      -0.13980001
Pt      17.92908397      10.35136222       2.38854460        1       0.00000000       0.01907033       0.01007778      -0.14287919
Pt      -0.00984868       1.57373449       4.76445855        2       0.00000000       0.00025965      -0.00101031       0.00441058
Pt       2.75875162       1.58671108       4.73597526        2       0.00000000      -0.00088003      -0.00078973       0.00474544
Pt       5.51546087       1.59422817       4.72794312        2       0.00000000      -0.00074391       0.00026014       0.00215602
Pt       8.26699482       1.59113063       4.73214334        2       0.00000000       0.00197207       0.00205880      -0.00160666
Pt      11.02039856       1.59476377       4.72438951        2       0.00000000       0.00331402       0.00137409       0.00193004
Pt       1.37064577       3.97369179       4.73446263        2       0.00000000       0.00146871      -0.00238040       0.00199992
Pt       4.13082140       3.98217254       4.73081029        2       0.00000000       0.00081720      -0.00117246       0.00032927
Pt       6.88954877       3.98176292       4.73288113        2       0.00000000      -0.00002854       0.00094540      -0.00092326
Pt       9.64662846       3.98163849       4.73242057        2       0.00000000       0.00193988       0.00217518      -0.00207157
Pt      12.40736492       3.97902740       4.72843379        2       0.00000000       0.00293725      -0.00001983      -0.00008690
Pt       2.74961909       6.36993677       4.73004566        2       0.00000000       0.00084903      -0.00027514      -0.00128406
Pt       5.50760496       6.36878338       4.73160999        2       0.00000000       0.00106459       0.00217808      -0.00191922
Pt       8.26825971       6.36640473       4.73180329        2       0.00000000       0.00178508       0.00227884      -0.00108314
Pt      11.02813639       6.36842115       4.73037811        2       0.00000000       0.00228999       0.00180621      -0.00207587
Pt      13.78535577       6.36924819       4.73111572        2       0.00000000       0.00193663       0.00175889      -0.00140482
Pt       4.13018495       8.76103266       4.72839753        2       0.00000000       0.00197128       0.00204574      -0.00079122
Pt       6.88864532       8.75311807       4.72533155        2       0.00000000       0.00332454       0.00355927       0.00328393
Pt       9.64607688       8.75541440       4.72377122        2       0.00000000       0.00048399       0.00366399       0.00431119
Pt      12.40552184       8.75830112       4.73019007        2       0.00000000       0.00029007       0.00194213       0.00102678
Pt      15.16250298       8.75726819       4.73133223        2       0.00000000       0.00091950       0.00271741      -0.00162229
Pt       5.52427508      11.15518048       4.76416423        2       0.00000000       0.00163765       0.00138416       0.00679116
Pt       8.25583725      11.15605515       4.77336908        2       0.00000000      -0.00083913       0.00151290       0.00824270
Pt      11.01660152      11.14794229       4.74430172        2       0.00000000      -0.00013762       0.00103690       0.00055680
Pt      13.78288367      11.14508825       4.72936492        2       0.00000000      -0.00077173       0.00294526       0.00024854
Pt      16.54432458      11.14473257       4.72690544        2       0.00000000       0.00114002       0.00223141      -0.00123608
Pt      -0.01420151       0.00682311       7.21229509        3       0.00000000      -0.00911724      -0.00156439       0.00604163
Pt       2.75089935       0.01928092       7.11697488        3       0.00000000      -0.00302461       0.00136422       0.00201772
Pt       5.51056319       0.00405269       7.08422988        3       0.00000000      -0.00112233       0.00136490       0.00476319
Pt       8.25471393       0.00021837       7.08946760        3       0.00000000      -0.00131967       0.00136688      -0.00103611
Pt      10.99652528       0.00419164       7.06963068        3       0.00000000      -0.00332956       0.00087979       0.00336340
Pt       1.38303766       2.42037470       7.07700618        3       0.00000000      -0.00506709      -0.00533808       0.00609484
Pt       4.13471669       2.40029181       7.08526325        3       0.00000000       0.00009059       0.00198376       0.00475949
Pt       6.88368342       2.39054501       7.09217891        3       0.00000000       0.00107449       0.00063147      -0.00094542
Pt       9.63804821       2.39118872       7.09087291        3       0.00000000       0.00194442       0.00257787      -0.00340751
Pt      12.38447387       2.40970798       7.07519714        3       0.00000000       0.00137076       0.00102866       0.00510335
Pt       2.75367250       4.79178189       7.09106561        3       0.00000000       0.00026284      -0.00288578      -0.00085473
Pt       5.50832582       4.78113725       7.09245081        3       0.00000000       0.00191086       0.00074864      -0.00197151
Pt       8.26239678       4.77650955       7.09371658        3       0.00000000       0.00261565       0.00007474      -0.00298280
Pt      11.01586943       4.78448986       7.09152298        3       0.00000000       0.00357154       0.00192886      -0.00210238
Pt      13.77665842       4.78618585       7.08946583        3       0.00000000       0.00353162       0.00122806      -0.00303000
Pt       4.12169200       7.16296617       7.09082733        3       0.00000000       0.00100176      -0.00048089      -0.00243980
Pt       6.88324178       7.16171371       7.08920049        3       0.00000000       0.00345514      -0.00031972      -0.00258505
Pt       9.64608071       7.15893368       7.08923552        3       0.00000000       0.00245932       0.00169407      -0.00053278
Pt      12.40116313       7.16662182       7.09124560        3       0.00000000       0.00255352       0.00217131      -0.00148037
Pt      15.15730280       7.16950198       7.09216696        3       0.00000000       0.00268453       0.00299565      -0.00333637
Pt       5.49657908       9.53701645       7.07471549        3       0.00000000       0.00070518      -0.00152114       0.00362074
Pt       8.27335861       9.52642620       7.06827388        3       0.00000000      -0.00072242       0.00220886       0.01148540
Pt      11.02224007       9.55022746       7.08269422        3       0.00000000       0.00008171       0.00254095       0.00324228
Pt      13.77685295       9.55586480       7.08962841        3       0.00000000       0.00104936       0.00197537      -0.00103131
Pt      16.53393709       9.55418881       7.08790937        3       0.00000000       0.00283707       0.00207840      -0.00217301
O       -0.07461943      -0.00177771       9.20165204        0       0.00000000       0.01601290       0.00083559       0.01244611
O        1.16827026       0.18529364       9.90052270        0       0.00000000       0.03675088       0.00336972      -0.01878521
H        1.84714601       0.23011685       9.15020538        0       0.00000000       0.00443947      -0.01667387       0.00506032
