103
Lattice="13.791603039053763 -1.1704809832993197e-07 6.703336656169091e-07 6.895801418160254 11.94387930607876 1.6811462701697e-06 0.0 0.0 37.15135978955718" Properties=species:S:1:pos:R:3:tags:I:1:initial_magmoms:R:1:forces:R:3 energy=-593.2330322265625 free_energy=-593.2330322265625 stress="0.009124224070260362 -0.00013028919776270054 -5.340538612488659e-05 -0.00013028919776270054 0.009277496031104605 -9.954071169319153e-05 -5.340538612488659e-05 -9.954071169319153e-05 0.0013120573671510161" pbc="T T T"
Pt       0.00000004       0.00000003       0.00000000        0       0.00000000      -0.00164354      -0.00016370       0.13073245
Pt       2.75832052       0.00000002       0.00000029        0       0.00000000       0.00362325       0.00060767       0.14297223
Pt       5.51664114      -0.00000007       0.00000030        0       0.00000000       0.00216390      -0.00223278       0.13379803
Pt       8.27496177      -0.00000001       0.00000044        0       0.00000000      -0.00080411       0.00029334       0.13145471
Pt      11.03328250      -0.00000006       0.00000064        0       0.00000000      -0.00147320      -0.00006266       0.12611669
Pt       1.37916020       2.38877583       0.00000036        0       0.00000000       0.00140690       0.00355758       0.14379346
Pt       4.13748100       2.38877577       0.00000041        0       0.00000000       0.00392785       0.00291197       0.12180361
Pt       6.89580149       2.38877583       0.00000074        0       0.00000000      -0.00066579       0.00076041       0.12990528
Pt       9.65412211       2.38877585       0.00000086        0       0.00000000       0.00165026       0.00111944       0.13445452
Pt      12.41244274       2.38877574       0.00000096        0       0.00000000      -0.00162386      -0.00242084       0.12986305
Pt       2.75832046       4.77755174       0.00000071        0       0.00000000      -0.00111615       0.00335836       0.13538986
Pt       5.51664125       4.77755168       0.00000096        0       0.00000000      -0.00052377      -0.00081978       0.13234383
Pt       8.27496176       4.77755177       0.00000087        0       0.00000000       0.00091912       0.00105623       0.13051319
Pt      11.03328240       4.77755159       0.00000113        0       0.00000000       0.00098797       0.00158565       0.13168421
Pt      13.79160305       4.77755159       0.00000129        0       0.00000000       0.00435138       0.00067405       0.14002037
Pt       4.13748079       7.16632756       0.00000111        0       0.00000000      -0.00023515       0.00090266       0.13120121
Pt       6.89580146       7.16632759       0.00000109        0       0.00000000       0.00146787       0.00187772       0.13420370
Pt       9.65412208       7.16632755       0.00000130        0       0.00000000       0.00129103       0.00118756       0.13180971
Pt      12.41244264       7.16632749       0.00000147        0       0.00000000       0.00217667       0.00197260       0.13600138
Pt      15.17076330       7.16632753       0.00000168        0       0.00000000       0.00174360       0.00918908       0.12189159
Pt       5.51664133       9.55510348       0.00000140        0       0.00000000      -0.00114223       0.00032222       0.12642145
Pt       8.27496170       9.55510347       0.00000156        0       0.00000000      -0.00344038       0.00068729       0.12828255
Pt      11.03328233       9.55510332       0.00000163        0       0.00000000       0.00153404       0.00481851       0.13948572
Pt      13.79160294       9.55510332       0.00000180        0       0.00000000       0.00812442      -0.00148578       0.12151498
Pt      16.54992351       9.55510324       0.00000197        0       0.00000000       0.00198442       0.00144374       0.13124210
Pt       1.37916046       0.79625891       2.38854322        1       0.00000000       0.02236998       0.01533237      -0.06381476
Pt       4.13748118       0.79625904       2.38854321        1       0.00000000      -0.03224394      -0.04394360      -0.07385619
Pt       6.89580177       0.79625874       2.38854312        1       0.00000000      -0.01392201      -0.01297895      -0.14539509
Pt       9.65412216       0.79625869       2.38854340        1       0.00000000      -0.00222838      -0.00415794      -0.14602065
Pt      12.41244283       0.79625878       2.38854371        1       0.00000000      -0.00031734       0.01286216      -0.17608160
Pt       2.75832072       3.18503486       2.38854320        1       0.00000000      -0.05318514      -0.00749514      -0.06720437
Pt       5.51664121       3.18503462       2.38854355        1       0.00000000      -0.01215749      -0.00409003      -0.16003482
Pt       8.27496190       3.18503470       2.38854341        1       0.00000000      -0.00086755      -0.00782793      -0.15126537
Pt      11.03328255       3.18503481       2.38854380        1       0.00000000       0.00002613      -0.00840870      -0.14981604
Pt      13.79160321       3.18503467       2.38854404        1       0.00000000       0.04990838      -0.00802235      -0.06612291
Pt       4.13748100       5.57381065       2.38854369        1       0.00000000      -0.01541211      -0.01159436      -0.14879857
Pt       6.89580173       5.57381054       2.38854381        1       0.00000000      -0.00621122      -0.00168397      -0.15180030
Pt       9.65412207       5.57381056       2.38854394        1       0.00000000      -0.00129527      -0.00404848      -0.13667436
Pt      12.41244279       5.57381062       2.38854397        1       0.00000000       0.00288719      -0.00626615      -0.14969136
Pt      15.17076346       5.57381055       2.38854403        1       0.00000000      -0.00505716      -0.04988788      -0.10816839
Pt       5.51664151       7.96258644       2.38854405        1       0.00000000      -0.00487662      -0.00586580      -0.14827707
Pt       8.27496191       7.96258639       2.38854430        1       0.00000000      -0.00470467      -0.00282612      -0.15300277
Pt      11.03328242       7.96258650       2.38854453        1       0.00000000      -0.00042452      -0.00065532      -0.15422404
Pt      13.79160307       7.96258652       2.38854447        1       0.00000000      -0.00945431      -0.00910690      -0.13530485
Pt      16.54992363       7.96258639       2.38854479        1       0.00000000      -0.01278700      -0.01694978      -0.14097661
Pt       6.89580146      10.35136231       2.38854445        1       0.00000000       0.01280897      -0.00942354      -0.17746806
Pt       9.65412211      10.35136230       2.38854437        1       0.00000000       0.02359776       0.03824632      -0.08039341
Pt      12.41244281      10.35136234       2.38854469        1       0.00000000      -0.04298066       0.01901167      -0.10386047
Pt      15.17076345      10.35136224       2.38854446        1       0.00000000      -0.02120215      -0.00450262      -0.13602665
Pt      17.92908397      10.35136222       2.38854460        1       0.00000000      -0.00543535      -0.00537715      -0.14745778
Pt       0.00252039       1.59366782       4.74754926        2       0.00000000       0.00148317       0.00037555      -0.00021377
Pt       2.74799933       1.58525075       4.76498044        2       0.00000000       0.00189276      -0.00037440      -0.00034580
Pt       5.51170382       1.58968051       4.73083771        2       0.00000000       0.00203046      -0.00031991      -0.00026701
Pt       8.27208323       1.58270721       4.72923103        2       0.00000000       0.00180956       0.00018772       0.00012809
Pt      11.03032591       1.58292761       4.73049448        2       0.00000000       0.00150023       0.00032977      -0.00024936
Pt       1.36901971       3.94996913       4.77689911        2       0.00000000       0.00188741       0.00002917       0.00009231
Pt       4.13303646       3.97225630       4.73474563        2       0.00000000       0.00201697       0.00052313      -0.00102894
Pt       6.89802674       3.97763328       4.72742518        2       0.00000000       0.00159989       0.00019768       0.00027703
Pt       9.65066825       3.97341721       4.73177370        2       0.00000000       0.00141556       0.00033688       0.00011849
Pt      12.40231241       3.97462222       4.72934506        2       0.00000000       0.00148416       0.00032759      -0.00018983
Pt       2.74660594       6.35555572       4.72978379        2       0.00000000       0.00175252       0.00015924       0.00006764
Pt       5.50904415       6.36384830       4.72914379        2       0.00000000       0.00189370       0.00037710       0.00002292
Pt       8.26969085       6.36253353       4.73175173        2       0.00000000       0.00177261       0.00019758      -0.00004417
Pt      11.02883159       6.36216752       4.73228797        2       0.00000000       0.00172981       0.00030390      -0.00013377
Pt      13.78719556       6.35618502       4.73100952        2       0.00000000       0.00175870       0.00015072      -0.00014186
Pt       4.12568030       8.74752872       4.72826851        2       0.00000000       0.00179651       0.00007132      -0.00008105
Pt       6.88789273       8.75140270       4.72905557        2       0.00000000       0.00187022       0.00029284      -0.00027417
Pt       9.64714755       8.74436738       4.72779135        2       0.00000000       0.00180619       0.00024316      -0.00024647
Pt      12.40363683       8.75318761       4.72949173        2       0.00000000       0.00190889       0.00018051      -0.00008267
Pt      15.16025522       8.74804725       4.72990145        2       0.00000000       0.00188451       0.00007888      -0.00003310
Pt       5.50927148      11.13858923       4.71966129        2       0.00000000       0.00167289       0.00025433       0.00007476
Pt       8.28131525      11.13955272       4.74427029        2       0.00000000       0.00164115       0.00036285       0.00004156
Pt      11.00634289      11.14890916       4.77604752        2       0.00000000       0.00161730      -0.00012752      -0.00005192
Pt      13.77683016      11.13896517       4.73206082        2       0.00000000       0.00208491       0.00001380      -0.00026600
Pt      16.53882542      11.13674287       4.72814136        2       0.00000000       0.00185095       0.00009899       0.00001685
Pt      -0.06057072      -0.04189118       7.03782318        3       0.00000000       0.00392032       0.00035170       0.00001746
Pt       2.74872031      -0.02611113       7.19413520        3       0.00000000       0.00497359       0.00114268       0.00192089
Pt       5.52733724      -0.01897058       7.09204398        3       0.00000000       0.00265676       0.00101706      -0.00109375
Pt       8.26768162      -0.01602432       7.08930274        3       0.00000000       0.00277538       0.00052295       0.00002408
Pt      11.00366329      -0.01906877       7.08730965        3       0.00000000       0.00323436       0.00051957      -0.00044066
Pt       1.37812625       2.37872891       7.22732820        3       0.00000000       0.00272389       0.00034052      -0.00229883
Pt       4.17951119       2.38481425       7.06137741        3       0.00000000       0.00263888       0.00527010      -0.00290009
Pt       6.90972404       2.37687978       7.08498315        3       0.00000000       0.00297887       0.00092669      -0.00003362
Pt       9.65027179       2.37623918       7.08961336        3       0.00000000       0.00301607       0.00041499       0.00015810
Pt      12.39865442       2.37479087       7.08954919        3       0.00000000       0.00281188       0.00021756      -0.00041625
Pt       2.75487382       4.77320700       7.09033688        3       0.00000000       0.00286610       0.00179261      -0.00007480
Pt       5.52059948       4.77365418       7.08426722        3       0.00000000       0.00331317       0.00209072       0.00037608
Pt       8.27177348       4.76527762       7.09100520        3       0.00000000       0.00288628       0.00058029       0.00029293
Pt      11.02743426       4.76297429       7.09286135        3       0.00000000       0.00272433       0.00045970      -0.00015995
Pt      13.78288983       4.75768078       7.09155534        3       0.00000000       0.00246583       0.00042087      -0.00054744
Pt       4.12550324       7.14879987       7.08799024        3       0.00000000       0.00309127       0.00093341       0.00035959
Pt       6.88655651       7.14980022       7.08947152        3       0.00000000       0.00343596       0.00131126      -0.00013185
Pt       9.64605672       7.15130782       7.09216818        3       0.00000000       0.00294137       0.00061928      -0.00033450
Pt      12.40310287       7.14861057       7.08920354        3       0.00000000       0.00300349       0.00044235      -0.00010169
Pt      15.15894330       7.15096068       7.08919531        3       0.00000000       0.00276164       0.00060274       0.00006440
Pt       5.49193734       9.52435830       7.08681960        3       0.00000000       0.00326486       0.00065659      -0.00057232
Pt       8.25717731       9.52614440       7.08575796        3       0.00000000       0.00388040       0.00150206      -0.00047547
Pt      11.02183030       9.53442669       7.08528191        3       0.00000000       0.00328258       0.00047035      -0.00005302
Pt      13.78169126       9.53544495       7.08892176        3       0.00000000       0.00311479       0.00062702      -0.00009415
Pt      16.53461046       9.53614858       7.08936704        3       0.00000000       0.00302222       0.00047625      -0.00015637
O        2.01916272       1.07016392       8.87408552        0       0.00000000       0.00287244       0.01149583      -0.00200316
O        3.04962412       1.55532577       9.81906702        0       0.00000000       0.01243704       0.02978328      -0.01688403
H        3.77298242       1.83170486       9.17042398        0       0.00000000      -0.02877520       0.03926038       0.00320578
