 vasp.6.4.3 19Mar24 (build Jul 09 2024 15:45:28) complex                        
  
 executed on             LinuxIFC date 2024.10.29  12:11:57
 running   40 mpi-ranks, on    1 nodes
 distrk:  each k-point on   40 cores,    1 groups
 distr:  one band on NCORE=   4 cores,   10 groups


--------------------------------------------------------------------------------------------------------


 INCAR:
   ENCUT = 400.000000
   POTIM = 0.150000
   EDIFF = 1.00e-04
   EDIFFG = -1.00e-01
   ALGO = Normal
   GGA = PE
   PREC = Normal
   IBRION = 2
   IDIPOL = 3
   ISMEAR = 0
   ISPIN = 2
   LMAXMIX = 6
   LORBIT = 10
   NELM = 30
   NELMIN = 5
   NPAR = 10
   NSIM = 10
   NSW = 5
   KGAMMA = .TRUE.
   LASPH = .TRUE.
   LCHARG = .FALSE.
   LDIPOL = .TRUE.
   LWAVE = .FALSE.
   LREAL = .TRUE.
   MAGMOM = 8*1.0000 29*0.0000

 POTCAR:    PAW_PBE Cr_pv 02Aug2007               
 POTCAR:    PAW_PBE La 06Sep2000                  
 POTCAR:    PAW_PBE O 08Apr2002                   
 POTCAR:    PAW_PBE H 15Jun2001                   
 POTCAR:    PAW_PBE Cr_pv 02Aug2007               
   SHA256 =  c9a7df34d3cdbacf1090e328ef39c0b420964e11c23f63548d1ac9dd218cdba0 Cr_pv/POTCAR          
   COPYR  = (c) Copyright 02Aug2007 Georg Kresse                                                    
   COPYR  = This file is part of the software VASP. Any use, copying, and all other rights are regul
   COPYR  = If you do not have a valid VASP license, you may not use, copy or distribute this file. 
   VRHFIN =Cr : p6d5s1                                                                              
   LEXCH  = PE                                                                                      
   EATOM  =  1647.9177 eV,  121.1185 Ry                                                             
                                                                                                    
   TITEL  = PAW_PBE Cr_pv 02Aug2007                                                                 
   LULTRA =        F    use ultrasoft PP ?                                                          
   IUNSCR =        1    unscreen: 0-lin 1-nonlin 2-no                                               
   RPACOR =    2.080    partial core radius                                                         
   POMASS =   51.996; ZVAL   =   12.000    mass and valenz                                          
   RCORE  =    2.300    outmost cutoff radius                                                       
   RWIGS  =    2.500; RWIGS  =    1.323    wigner-seitz radius (au A)                               
   ENMAX  =  265.681; ENMIN  =  199.261 eV                                                          
   ICORE  =        3    local potential                                                             
   LCOR   =        T    correct aug charges                                                         
   LPAW   =        T    paw PP                                                                      
   EAUG   =  519.424                                                                                
   DEXC   =    0.000                                                                                
   RMAX   =    2.356    core radius for proj-oper                                                   
   RAUG   =    1.300    factor for augmentation sphere                                              
   RDEP   =    2.447    radius for radial grids                                                     
   RDEPT  =    1.882    core radius for aug-charge                                                  
                                                                                                    
   Atomic configuration                                                                             
    8 entries                                                                                       
     n  l   j            E        occ.                                                              
     1  0  0.50     -5880.4963   2.0000                                                             
     2  0  0.50      -667.0865   2.0000                                                             
     2  1  1.50      -560.6250   6.0000                                                             
     3  0  0.50       -73.9860   2.0000                                                             
     3  1  1.50       -45.4378   6.0000                                                             
     3  2  2.50        -2.9137   5.0000                                                             
     4  0  0.50        -4.0071   1.0000                                                             
     4  3  2.50        -1.3606   0.0000                                                             
   Description                                                                                      
     l       E           TYP  RCUT    TYP  RCUT                                                     
     1    -45.4377911     23  2.000                                                                 
     1      1.3605826     23  2.000                                                                 
     2     -2.9136672     23  2.300                                                                 
     2     -4.2742498     23  2.300                                                                 
     0     -4.0071320     23  2.300                                                                 
     0      9.4498803     23  2.300                                                                 
     3      2.7211652     23  2.300                                                                 
  local pseudopotential read in
  partial core-charges read in
  partial kinetic energy density read in
  atomic valenz-charges read in
  non local Contribution for L=           1  read in
    real space projection operators read in
  non local Contribution for L=           1  read in
    real space projection operators read in
  non local Contribution for L=           2  read in
    real space projection operators read in
  non local Contribution for L=           2  read in
    real space projection operators read in
  non local Contribution for L=           0  read in
    real space projection operators read in
  non local Contribution for L=           0  read in
    real space projection operators read in
    PAW grid and wavefunctions read in
 
   number of l-projection  operators is LMAX  =           6
   number of lm-projection operators is LMMAX =          18
 
 POTCAR:    PAW_PBE La 06Sep2000                  
   SHA256 =  b7aad99517e50aeb53363b20a29bb0dfa896544080812fb23322f071df953199 La/POTCAR             
   COPYR  = (c) Copyright 06Sep2000 Georg Kresse                                                    
   COPYR  = This file is part of the software VASP. Any use, copying, and all other rights are regul
   COPYR  = If you do not have a valid VASP license, you may not use, copy or distribute this file. 
   VRHFIN =La : [core=Kr4d]                                                                         
   LEXCH  = PE                                                                                      
   EATOM  =   865.9763 eV,   63.6475 Ry                                                             
                                                                                                    
   TITEL  = PAW_PBE La 06Sep2000                                                                    
   LULTRA =        F    use ultrasoft PP ?                                                          
   IUNSCR =        1    unscreen: 0-lin 1-nonlin 2-no                                               
   RPACOR =    2.300    partial core radius                                                         
   POMASS =  138.900; ZVAL   =   11.000    mass and valenz                                          
   RCORE  =    2.800    outmost cutoff radius                                                       
   RWIGS  =    2.900; RWIGS  =    1.535    wigner-seitz radius (au A)                               
   ENMAX  =  219.292; ENMIN  =  164.469 eV                                                          
   RCLOC  =    1.601    cutoff for local pot                                                        
   LCOR   =        T    correct aug charges                                                         
   LPAW   =        T    paw PP                                                                      
   EAUG   =  583.575                                                                                
   DEXC   =    0.000                                                                                
   RMAX   =    2.853    core radius for proj-oper                                                   
   RAUG   =    1.300    factor for augmentation sphere                                              
   RDEP   =    2.802    radius for radial grids                                                     
   RDEPT  =    2.156    core radius for aug-charge                                                  
                                                                                                    
   Atomic configuration                                                                             
   14 entries                                                                                       
     n  l   j            E        occ.                                                              
     1  0  0.50    -38741.0879   2.0000                                                             
     2  0  0.50     -6166.6801   2.0000                                                             
     2  1  1.50     -5526.1593   6.0000                                                             
     3  0  0.50     -1319.0200   2.0000                                                             
     3  1  1.50     -1114.5963   6.0000                                                             
     3  2  2.50      -821.1793  10.0000                                                             
     4  0  0.50      -266.3851   2.0000                                                             
     4  1  1.50      -199.9276   6.0000                                                             
     4  2  2.50      -103.8239  10.0000                                                             
     5  0  0.50       -38.9172   2.0000                                                             
     6  0  0.50        -3.6792   2.0000                                                             
     5  1  1.50       -22.3948   6.0000                                                             
     5  2  2.50        -3.0911   0.9999                                                             
     4  3  2.50        -4.3603   0.0001                                                             
   Description                                                                                      
     l       E           TYP  RCUT    TYP  RCUT                                                     
     0    -38.9171645     23  2.800                                                                 
     0     -3.6792381     23  2.800                                                                 
     1    -22.3948300     23  2.500                                                                 
     1     27.2116520     23  2.500                                                                 
     2     -3.0910934     23  2.500                                                                 
     2      1.0119135     23  2.500                                                                 
     3     -4.3602911     23  2.800                                                                 
     3     -5.7208737     23  2.800                                                                 
  local pseudopotential read in
  partial core-charges read in
  partial kinetic energy density read in
  atomic valenz-charges read in
  non local Contribution for L=           0  read in
    real space projection operators read in
  non local Contribution for L=           0  read in
    real space projection operators read in
  non local Contribution for L=           1  read in
    real space projection operators read in
  non local Contribution for L=           1  read in
    real space projection operators read in
  non local Contribution for L=           2  read in
    real space projection operators read in
  non local Contribution for L=           2  read in
    real space projection operators read in
  non local Contribution for L=           3  read in
    real space projection operators read in
  non local Contribution for L=           3  read in
    real space projection operators read in
    PAW grid and wavefunctions read in
 
   number of l-projection  operators is LMAX  =           8
   number of lm-projection operators is LMMAX =          32
 
 POTCAR:    PAW_PBE O 08Apr2002                   
   SHA256 =  818f92134a0a090dccd8ba1447fa70422a3b330e708bb4f08108d8ae51209ddf O/POTCAR              
   COPYR  = (c) Copyright 08Apr2002 Georg Kresse                                                    
   COPYR  = This file is part of the software VASP. Any use, copying, and all other rights are regul
   COPYR  = If you do not have a valid VASP license, you may not use, copy or distribute this file. 
   VRHFIN =O: s2p4                                                                                  
   LEXCH  = PE                                                                                      
   EATOM  =   432.3788 eV,   31.7789 Ry                                                             
                                                                                                    
   TITEL  = PAW_PBE O 08Apr2002                                                                     
   LULTRA =        F    use ultrasoft PP ?                                                          
   IUNSCR =        1    unscreen: 0-lin 1-nonlin 2-no                                               
   RPACOR =    1.200    partial core radius                                                         
   POMASS =   16.000; ZVAL   =    6.000    mass and valenz                                          
   RCORE  =    1.520    outmost cutoff radius                                                       
   RWIGS  =    1.550; RWIGS  =    0.820    wigner-seitz radius (au A)                               
   ENMAX  =  400.000; ENMIN  =  300.000 eV                                                          
   ICORE  =        2    local potential                                                             
   LCOR   =        T    correct aug charges                                                         
   LPAW   =        T    paw PP                                                                      
   EAUG   =  605.392                                                                                
   DEXC   =    0.000                                                                                
   RMAX   =    1.553    core radius for proj-oper                                                   
   RAUG   =    1.300    factor for augmentation sphere                                              
   RDEP   =    1.550    radius for radial grids                                                     
   RDEPT  =    1.329    core radius for aug-charge                                                  
                                                                                                    
   Atomic configuration                                                                             
    4 entries                                                                                       
     n  l   j            E        occ.                                                              
     1  0  0.50      -514.6923   2.0000                                                             
     2  0  0.50       -23.9615   2.0000                                                             
     2  1  0.50        -9.0305   4.0000                                                             
     3  2  1.50        -9.5241   0.0000                                                             
   Description                                                                                      
     l       E           TYP  RCUT    TYP  RCUT                                                     
     0    -23.9615318     23  1.200                                                                 
     0     -9.5240782     23  1.200                                                                 
     1     -9.0304911     23  1.520                                                                 
     1      8.1634956     23  1.520                                                                 
     2     -9.5240782      7  1.500                                                                 
  local pseudopotential read in
  partial core-charges read in
  partial kinetic energy density read in
  kinetic energy density of atom read in
  atomic valenz-charges read in
  non local Contribution for L=           0  read in
    real space projection operators read in
  non local Contribution for L=           0  read in
    real space projection operators read in
  non local Contribution for L=           1  read in
    real space projection operators read in
  non local Contribution for L=           1  read in
    real space projection operators read in
    PAW grid and wavefunctions read in
 
   number of l-projection  operators is LMAX  =           4
   number of lm-projection operators is LMMAX =           8
 
 POTCAR:    PAW_PBE H 15Jun2001                   
   SHA256 =  030f79b5d3ab3cf0e668861823c8fb652ff669f3e15e46930bd03bfd63a607b6 H/POTCAR              
   COPYR  = (c) Copyright 15Jun2001 Georg Kresse                                                    
   COPYR  = This file is part of the software VASP. Any use, copying, and all other rights are regul
   COPYR  = If you do not have a valid VASP license, you may not use, copy or distribute this file. 
   VRHFIN =H: ultrasoft test                                                                        
   LEXCH  = PE                                                                                      
   EATOM  =    12.4884 eV,    0.9179 Ry                                                             
                                                                                                    
   TITEL  = PAW_PBE H 15Jun2001                                                                     
   LULTRA =        F    use ultrasoft PP ?                                                          
   IUNSCR =        0    unscreen: 0-lin 1-nonlin 2-no                                               
   RPACOR =    0.000    partial core radius                                                         
   POMASS =    1.000; ZVAL   =    1.000    mass and valenz                                          
   RCORE  =    1.100    outmost cutoff radius                                                       
   RWIGS  =    0.700; RWIGS  =    0.370    wigner-seitz radius (au A)                               
   ENMAX  =  250.000; ENMIN  =  200.000 eV                                                          
   RCLOC  =    0.701    cutoff for local pot                                                        
   LCOR   =        T    correct aug charges                                                         
   LPAW   =        T    paw PP                                                                      
   EAUG   =  400.000                                                                                
   RMAX   =    1.123    core radius for proj-oper                                                   
   RAUG   =    1.200    factor for augmentation sphere                                              
   RDEP   =    1.112    radius for radial grids                                                     
   RDEPT  =    0.926    core radius for aug-charge                                                  
                                                                                                    
   Atomic configuration                                                                             
    2 entries                                                                                       
     n  l   j            E        occ.                                                              
     1  0  0.50        -6.4927   1.0000                                                             
     2  1  0.50        -3.4015   0.0000                                                             
   Description                                                                                      
     l       E           TYP  RCUT    TYP  RCUT                                                     
     0     -6.4927494     23  1.100                                                                 
     0      6.8029130     23  1.100                                                                 
     1     -4.0817478     23  1.100                                                                 
  local pseudopotential read in
  atomic valenz-charges read in
  non local Contribution for L=           0  read in
    real space projection operators read in
  non local Contribution for L=           0  read in
    real space projection operators read in
  non local Contribution for L=           1  read in
    real space projection operators read in
    PAW grid and wavefunctions read in
 
   number of l-projection  operators is LMAX  =           3
   number of lm-projection operators is LMMAX =           5
 
 -----------------------------------------------------------------------------
|                                                                             |
|           W    W    AA    RRRRR   N    N  II  N    N   GGGG   !!!           |
|           W    W   A  A   R    R  NN   N  II  NN   N  G    G  !!!           |
|           W    W  A    A  R    R  N N  N  II  N N  N  G       !!!           |
|           W WW W  AAAAAA  RRRRR   N  N N  II  N  N N  G  GGG   !            |
|           WW  WW  A    A  R   R   N   NN  II  N   NN  G    G                |
|           W    W  A    A  R    R  N    N  II  N    N   GGGG   !!!           |
|                                                                             |
|     The real-space projection scheme for the treatment of the non-local     |
|     pseudopotentials has been switched on but on file POTCAR I have not     |
|     found any entries, signalling me that you have never performed a        |
|     real-space optimization of all non-local projectors! BE WARNED that     |
|     a calculation using the real-space projection scheme together with      |
|     non-local projectors which were not real-space optimized (according     |
|     to the plane-wave cutoff used in this calculation) might give more      |
|     or less inaccurate results. I hope you know what you are doing.         |
|                                                                             |
 -----------------------------------------------------------------------------

  PAW_PBE Cr_pv 02Aug2007               :
 energy of atom  1       EATOM=-1647.9177
 kinetic energy error for atom=    0.0284 (will be added to EATOM!!)
  PAW_PBE La 06Sep2000                  :
 energy of atom  2       EATOM= -865.9763
 kinetic energy error for atom=    0.0031 (will be added to EATOM!!)
  PAW_PBE O 08Apr2002                   :
 energy of atom  3       EATOM= -432.3788
 kinetic energy error for atom=    0.1156 (will be added to EATOM!!)
  PAW_PBE H 15Jun2001                   :
 energy of atom  4       EATOM=  -12.4884
 kinetic energy error for atom=    0.0098 (will be added to EATOM!!)
 
 
 POSCAR: Cr La O  H
  positions in cartesian coordinates
  No initial velocities read in


 exchange-correlation table for PE
   RHO(1)=    0.500       N(1)  =     2000
   RHO(2)=  100.500       N(2)  =     4000

 VTST: version 4.1, (05/19/21)

 CHAIN: initializing optimizer
 
 OPT: Using VASP Conjugate-Gradient optimizer
 CHAIN: Read ICHAIN            0
 
 POSCAR: Cr La O  H
  positions in cartesian coordinates
  No initial velocities read in
 


--------------------------------------------------------------------------------------------------------


 ion  position               nearest neighbor table
   1  0.000  0.500  0.003-  16 1.91  18 1.97  15 2.18  10 3.23   9 3.35   9 3.42
   2  0.500  0.000  0.003-  15 1.91  17 1.97  16 2.18   9 3.23  10 3.35  10 3.42
   3  0.500  0.000  0.136-  20 1.91  21 1.91  17 1.97  23 1.97  22 2.18  19 2.18   9 3.23  11 3.23
                            10 3.35  12 3.35  12 3.42  10 3.42
   4  0.000  0.500  0.136-  19 1.91  22 1.91  18 1.97  24 1.97  20 2.18  21 2.18  10 3.23  12 3.23
                            11 3.35   9 3.35   9 3.42  11 3.42
   5  1.000  0.499  0.269-  30 1.90  28 1.97  25 2.00  24 2.01  27 2.13  26 2.13  14 3.25  12 3.26
                            13 3.34  11 3.37
   6  0.500  0.999  0.269-  29 1.90  27 1.97  26 2.00  23 2.01  28 2.13  25 2.13  13 3.25  11 3.26
                            14 3.34  12 3.37
   7  0.489  0.003  0.400-  33 1.89  29 1.97  32 2.02  34 2.12  31 2.16  13 3.23  14 3.34  14 3.35

   8  0.011  0.503  0.400-  34 1.89  30 1.97  31 2.02  33 2.12  35 2.16  32 2.16  14 3.23  13 3.34
                            13 3.35
   9  0.508  0.549  0.070-  18 2.43  16 2.46  19 2.46  17 2.56  15 2.65  20 2.65  22 2.70   3 3.23
                             2 3.23   4 3.35   1 3.35   4 3.42   1 3.42
  10  0.992  0.049  0.070-  17 2.43  15 2.46  20 2.46  18 2.56  19 2.65  16 2.65  21 2.70   4 3.23
                             1 3.23   3 3.35   2 3.35   3 3.42   2 3.42
  11  0.492  0.451  0.202-  25 2.40  24 2.43  22 2.46  23 2.56  28 2.64  21 2.65  26 2.66  19 2.70
                             3 3.23   6 3.26   4 3.35   5 3.37   4 3.42
  12  0.008  0.951  0.202-  26 2.40  23 2.43  21 2.46  24 2.56  27 2.64  22 2.65  25 2.66  20 2.70
                             4 3.23   5 3.26   3 3.35   6 3.37   3 3.42
  13  0.510  0.544  0.336-  31 2.36  28 2.43  30 2.45  34 2.59  32 2.59  29 2.68  27 2.76  25 2.76
                             7 3.23   6 3.25   5 3.34   8 3.34   8 3.35
  14  0.990  0.044  0.336-  32 2.36  27 2.43  29 2.45  33 2.59  31 2.59  30 2.68  28 2.76  26 2.76
                             8 3.23   5 3.25   6 3.34   7 3.34   7 3.35
  15  0.774  0.807  0.014-   2 1.91   1 2.18  10 2.46   9 2.65
  16  0.726  0.307  0.014-   1 1.91   2 2.18   9 2.46  10 2.65
  17  0.425  0.987  0.070-   3 1.97   2 1.97  10 2.43   9 2.56
  18  0.075  0.487  0.070-   4 1.97   1 1.97   9 2.43  10 2.56
  19  0.726  0.307  0.126-   4 1.91   3 2.18   9 2.46  10 2.65  11 2.70
  20  0.774  0.807  0.126-   3 1.91   4 2.18  10 2.46   9 2.65  12 2.70
  21  0.226  0.193  0.146-   3 1.91   4 2.18  12 2.46  11 2.65  10 2.70
  22  0.274  0.693  0.146-   4 1.91   3 2.18  11 2.46  12 2.65   9 2.70
  23  0.575  0.013  0.202-   3 1.97   6 2.01  12 2.43  11 2.56
  24  0.925  0.513  0.202-   4 1.97   5 2.01  11 2.43  12 2.56
  25  0.289  0.696  0.256-   5 2.00   6 2.13  11 2.40  12 2.66  13 2.76
  26  0.211  0.196  0.256-   6 2.00   5 2.13  12 2.40  11 2.66  14 2.76
  27  0.792  0.808  0.278-   6 1.97   5 2.13  14 2.43  12 2.64  13 2.76
  28  0.708  0.308  0.278-   5 1.97   6 2.13  13 2.43  11 2.64  14 2.76
  29  0.430  0.004  0.333-   6 1.90   7 1.97  14 2.45  13 2.68
  30  0.070  0.504  0.333-   5 1.90   8 1.97  13 2.45  14 2.68
  31  0.719  0.301  0.388-   8 2.02   7 2.16  13 2.36  14 2.59
  32  0.781  0.801  0.388-   7 2.02   8 2.16  14 2.36  13 2.59
  33  0.213  0.192  0.408-   7 1.89   8 2.12  14 2.59
  34  0.287  0.692  0.408-   8 1.89   7 2.12  13 2.59
  35  0.000  0.623  0.470-  36 1.47   8 2.16
  36  0.000  0.383  0.487-  37 1.08  35 1.47
  37  0.000  0.402  0.524-  36 1.08
 
  LATTYP: Found a simple orthorhombic cell.
 ALAT       =     5.5367000000
 B/A-ratio  =     1.0380370979
 C/A-ratio  =     5.2541031011
  
  Lattice vectors:
  
 A1 = (   5.5367000000,   0.0000000000,   0.0000000000)
 A2 = (   0.0000000000,   5.7473000000,   0.0000000000)
 A3 = (   0.0000000000,   0.0000000000,  29.0903926400)


Analysis of symmetry for initial positions (statically):
=====================================================================
 Subroutine PRICEL returns:
 Original cell was already a primitive cell.
 

 Routine SETGRP: Setting up the symmetry group for a 
 simple orthorhombic supercell.


 Subroutine GETGRP returns: Found  1 space group operations
 (whereof  1 operations were pure point group operations)
 out of a pool of  8 trial point group operations.


The static configuration has the point symmetry C_1 .


Analysis of symmetry for dynamics (positions and initial velocities):
=====================================================================
 Subroutine PRICEL returns:
 Original cell was already a primitive cell.
 

 Routine SETGRP: Setting up the symmetry group for a 
 simple orthorhombic supercell.


 Subroutine GETGRP returns: Found  1 space group operations
 (whereof  1 operations were pure point group operations)
 out of a pool of  8 trial point group operations.


The dynamic configuration has the point symmetry C_1 .


Analysis of constrained symmetry for selective dynamics:
=====================================================================
 Subroutine PRICEL returns:
 Original cell was already a primitive cell.
 

 Routine SETGRP: Setting up the symmetry group for a 
 simple orthorhombic supercell.


 Subroutine GETGRP returns: Found  1 space group operations
 (whereof  1 operations were pure point group operations)
 out of a pool of  8 trial point group operations.


The constrained configuration has the point symmetry C_1 .


Analysis of structural, dynamic, and magnetic symmetry:
=====================================================================
 Subroutine PRICEL returns:
 Original cell was already a primitive cell.
 

 Routine SETGRP: Setting up the symmetry group for a 
 simple orthorhombic supercell.


 Subroutine GETGRP returns: Found  1 space group operations
 (whereof  1 operations were pure point group operations)
 out of a pool of  8 trial point group operations.


The overall configuration has the point symmetry C_1 .


 Subroutine INISYM returns: Found  1 space group operations
 (whereof  1 operations are pure point group operations),
 and found     1 'primitive' translations


----------------------------------------------------------------------------------------

                                     Primitive cell                                     

  volume of cell :     925.6876

  direct lattice vectors                    reciprocal lattice vectors
     5.536700000  0.000000000  0.000000000     0.180613001  0.000000000  0.000000000
     0.000000000  5.747300000  0.000000000     0.000000000  0.173994745  0.000000000
     0.000000000  0.000000000 29.090392640     0.000000000  0.000000000  0.034375610

  length of vectors
     5.536700000  5.747300000 29.090392640     0.180613001  0.173994745  0.034375610

  position of ions in fractional coordinates (direct lattice)
     0.000000000  0.500000000  0.003437561
     0.500000000  0.000000000  0.003437561
     0.500000000  0.000000000  0.135661627
     0.000000000  0.500000000  0.135661627
     0.999869288  0.499384381  0.269371256
     0.500130712  0.999384381  0.269371256
     0.489395868  0.003155030  0.400064527
     0.010604132  0.503155030  0.400064527
     0.507800000  0.549000000  0.069549594
     0.992200000  0.049000000  0.069549594
     0.492200000  0.451000000  0.201773660
     0.007800000  0.951000000  0.201773660
     0.509573887  0.544166459  0.335817371
     0.990426113  0.044166459  0.335817371
     0.774400000  0.806600000  0.013592369
     0.725600000  0.306600000  0.013592369
     0.425500000  0.987400000  0.069549594
     0.074500000  0.487400000  0.069549594
     0.725600000  0.306600000  0.125506819
     0.774400000  0.806600000  0.125506819
     0.225600000  0.193400000  0.145816435
     0.274400000  0.693400000  0.145816435
     0.574500000  0.012600000  0.201773660
     0.925500000  0.512600000  0.201773660
     0.288705330  0.696341168  0.256143619
     0.211294670  0.196341168  0.256143619
     0.792048047  0.807818652  0.277526194
     0.707951953  0.307818652  0.277526194
     0.429843379  0.003571190  0.333245042
     0.070156621  0.503571190  0.333245042
     0.719086704  0.301287230  0.387742702
     0.780913296  0.801287230  0.387742702
     0.213394579  0.192287266  0.408348745
     0.286605421  0.692287266  0.408348745
     0.000000000  0.623158779  0.470224844
     0.000000000  0.383119496  0.487485705
     0.000000000  0.401959100  0.524441227

  ion indices of the primitive-cell ions
   primitive index   ion index
                 1           1
                 2           2
                 3           3
                 4           4
                 5           5
                 6           6
                 7           7
                 8           8
                 9           9
                10          10
                11          11
                12          12
                13          13
                14          14
                15          15
                16          16
                17          17
                18          18
                19          19
                20          20
                21          21
                22          22
                23          23
                24          24
                25          25
                26          26
                27          27
                28          28
                29          29
                30          30
                31          31
                32          32
                33          33
                34          34
                35          35
                36          36
                37          37

----------------------------------------------------------------------------------------

 
 
 KPOINTS: KPOINTS created by Atomic Simulation Env

Automatic generation of k-mesh.
 Grid dimensions read from file:
 generate k-points for:    1    1    1

 Generating k-lattice:

  Cartesian coordinates                     Fractional coordinates (reciprocal lattice)
     0.180613001  0.000000000  0.000000000     1.000000000  0.000000000  0.000000000
     0.000000000  0.173994745  0.000000000     0.000000000  1.000000000  0.000000000
     0.000000000  0.000000000  0.034375610     0.000000000  0.000000000  1.000000000

  Length of vectors
     0.180613001  0.173994745  0.034375610

  Shift w.r.t. Gamma in fractional coordinates (k-lattice)
     0.000000000  0.000000000  0.000000000

 
 Subroutine IBZKPT returns following result:
 ===========================================
 
 Found      1 irreducible k-points:
 
 Following reciprocal coordinates:
            Coordinates               Weight
  0.000000  0.000000  0.000000      1.000000
 
 Following cartesian coordinates:
            Coordinates               Weight
  0.000000  0.000000  0.000000      1.000000
 


--------------------------------------------------------------------------------------------------------




 Dimension of arrays:
   k-points           NKPTS =      1   k-points in BZ     NKDIM =      1   number of bands    NBANDS=    190
   number of dos      NEDOS =    301   number of ions     NIONS =     37
   non local maximal  LDIM  =      8   non local SUM 2l+1 LMDIM =     32
   total plane-waves  NPLWV = 112896
   max r-space proj   IRMAX =   1808   max aug-charges    IRDMAX=   6572
   dimension x,y,z NGX =    28 NGY =   28 NGZ =  144
   dimension x,y,z NGXF=    56 NGYF=   56 NGZF=  288
   support grid    NGXF=    56 NGYF=   56 NGZF=  288
   ions per type =               8   6  22   1
   NGX,Y,Z   is equivalent  to a cutoff of   8.41,  8.10,  8.23 a.u.
   NGXF,Y,Z  is equivalent  to a cutoff of  16.81, 16.20, 16.46 a.u.

 SYSTEM =  unknown system                          
 POSCAR =  Cr La O  H                              

 Startparameter for this run:
   NWRITE =      2    write-flag & timer
   PREC   = normal    normal or accurate (medium, high low for compatibility)
   ISTART =      0    job   : 0-new  1-cont  2-samecut
   ICHARG =      2    charge: 1-file 2-atom 10-const
   ISPIN  =      2    spin polarized calculation?
   LNONCOLLINEAR =      F non collinear calculations
   LSORBIT =      F    spin-orbit coupling
   INIWAV =      1    electr: 0-lowe 1-rand  2-diag
   LASPH  =      T    aspherical Exc in radial PAW
 Electronic Relaxation 1
   ENCUT  =  400.0 eV  29.40 Ry    5.42 a.u.   9.03  9.37 47.44*2*pi/ulx,y,z
   ENINI  =  400.0     initial cutoff
   ENAUG  =  605.4 eV  augmentation charge cutoff
   NELM   =     30;   NELMIN=  5; NELMDL=  0     # of ELM steps 
   EDIFF  = 0.1E-03   stopping-criterion for ELM
   LREAL  =      T    real-space projection
   NLSPLINE    = F    spline interpolate recip. space projectors
   LCOMPAT=      F    compatible to vasp.4.4
   GGA_COMPAT  = T    GGA compatible to vasp.4.4-vasp.4.6
   LMAXPAW     = -100 max onsite density
   LMAXMIX     =    6 max onsite mixed and CHGCAR
   VOSKOWN=      0    Vosko Wilk Nusair interpolation
   ROPT   =    0.00000   0.00000   0.00000   0.00000
 Ionic relaxation
   EDIFFG = -.1E+00   stopping-criterion for IOM
   NSW    =      5    number of steps for IOM
   NBLOCK =      1;   KBLOCK =      5    inner block; outer block 
   IBRION =      2    ionic relax: 0-MD 1-quasi-New 2-CG
   NFREE  =      1    steps in history (QN), initial steepest desc. (CG)
   ISIF   =      2    stress and relaxation
   IWAVPR =     11    prediction:  0-non 1-charg 2-wave 3-comb
   ISYM   =      2    0-nonsym 1-usesym 2-fastsym
   LCORR  =      T    Harris-Foulkes like correction to forces

   POTIM  = 0.1500    time-step for ionic-motion
   TEIN   =    0.0    initial temperature
   TEBEG  =    0.0;   TEEND  =   0.0 temperature during run
   SMASS  =  -3.00    Nose mass-parameter (am)
   estimated Nose-frequenzy (Omega)   =  0.10E-29 period in steps = 0.42E+47 mass=  -0.701E-27a.u.
   SCALEE = 1.0000    scale energy and forces
   NPACO  =    256;   APACO  = 10.0  distance and # of slots for P.C.
   PSTRESS=    0.0 pullay stress

  Mass of Ions in am
   POMASS =  52.00138.90 16.00  1.00
  Ionic Valenz
   ZVAL   =  12.00 11.00  6.00  1.00
  Atomic Wigner-Seitz radii
   RWIGS  =  -1.00 -1.00 -1.00 -1.00
  virtual crystal weights 
   VCA    =   1.00  1.00  1.00  1.00
   NELECT =     295.0000    total number of electrons
   NUPDOWN=      -1.0000    fix difference up-down

 DOS related values:
   EMIN   =  10.00;   EMAX   =-10.00  energy-range for DOS
   EFERMI =   0.00;   METHOD = LEGACY      
   ISMEAR =     0;   SIGMA  =   0.20  broadening in eV -4-tet -1-fermi 0-gaus

 Electronic relaxation 2 (details)
   IALGO  =     38    algorithm
   LDIAG  =      T    sub-space diagonalisation (order eigenvalues)
   LSUBROT=      F    optimize rotation matrix (better conditioning)
   TURBO    =      0    0=normal 1=particle mesh
   IRESTART =      0    0=no restart 2=restart with 2 vectors
   NREBOOT  =      0    no. of reboots
   NMIN     =      0    reboot dimension
   EREF     =   0.00    reference energy to select bands
   IMIX   =      4    mixing-type and parameters
     AMIX     =   0.40;   BMIX     =  1.00
     AMIX_MAG =   1.60;   BMIX_MAG =  1.00
     AMIN     =   0.10
     WC   =   100.;   INIMIX=   1;  MIXPRE=   1;  MAXMIX= -45

 Intra band minimization:
   WEIMIN = 0.0010     energy-eigenvalue tresh-hold
   EBREAK =  0.13E-06  absolut break condition
   DEPER  =   0.30     relativ break condition  

   TIME   =   0.40     timestep for ELM

  volume/ion in A,a.u.               =      25.02       168.83
  Fermi-wavevector in a.u.,A,eV,Ry     =   1.118220  2.113130 17.012950  1.250417
  Thomas-Fermi vector in A             =   2.254850
 
 Write flags
   LWAVE        =      F    write WAVECAR
   LDOWNSAMPLE  =      F    k-point downsampling of WAVECAR
   LCHARG       =      F    write CHGCAR
   LVTOT        =      F    write LOCPOT, total local potential
   LVHAR        =      F    write LOCPOT, Hartree potential only
   WRT_POTENTIAL= false  ! write potential to hdf5 file
   LELF         =      F    write electronic localiz. function (ELF)
   LORBIT       =     10    0 simple, 1 ext, 2 COOP (PROOUT), +10 PAW based schemes


 Dipole corrections
   LMONO      =      F    monopole corrections only (constant potential shift)
   LDIPOL     =      T    correct potential (dipole corrections)
   IDIPOL     =      3    1-x, 2-y, 3-z, 4-all directions 
   EPSILON    =  1.0000000 bulk dielectric constant
   LVACPOTAV  =      F  vacuum potentials using an averaging scheme for the charge density
   VACPOTFLAT =  0.1000000 required flatness to determine vacuum potential
 Exchange correlation treatment:
   GGA     = PE    functional components
   XC_C    = 1    coefficients multiplying the functional components
   LIBXC   =     F    Libxc                    
   VOSKOWN =     0    Vosko Wilk Nusair interpolation
   LHFCALC =     F    Hartree Fock is set to
   LHFONE  =     F    Hartree Fock one center treatment
   AEXX    =    0.0000 exact exchange contribution

 Parameters of functionals:
   PE:
     No parameter
 
 Van der Waals corrections
   IVDW    =     0    specifies the selected vdW correction

 Linear response parameters
   LEPSILON=     F    determine dielectric tensor
   LRPA    =     F    only Hartree local field effects (RPA)
   LNABLA  =     F    use nabla operator in PAW spheres
   LVEL    =     F    velocity operator in full k-point grid
   CSHIFT  =0.1000    complex shift for real part using Kramers Kronig
   OMEGAMAX=  -1.0    maximum frequency
   DEG_THRESHOLD= 0.2000000E-02 threshold for treating states as degnerate
   RTIME   =   -0.100 relaxation time in fs
  (WPLASMAI=    0.000 imaginary part of plasma frequency in eV, 0.658/RTIME)
   DFIELD  = 0.0000000 0.0000000 0.0000000 field for delta impulse in time
 
  Optional k-point grid parameters
   LKPOINTS_OPT  =     F    use optional k-point grid
   KPOINTS_OPT_MODE=     1    mode for optional k-point grid
 
 Orbital magnetization related:
   ORBITALMAG=     F  switch on orbital magnetization
   LCHIMAG   =     F  perturbation theory with respect to B field
   DQ        =  0.001000  dq finite difference perturbation B field
   LLRAUG    =     F  two centre corrections for induced B field
   LBONE     =     F  B-component reconstruction in AE one-centre
   LVGVCALC  =     T  calculate vGv susceptibility
   LVGVAPPL  =     F  apply vGv susceptibility instead of pGv for G=0

 Random number generation:
   RANDOM_GENERATOR = DEFAULT
   PCG_SEED         = not used


--------------------------------------------------------------------------------------------------------


 conjugate gradient relaxation of ions
   using selective dynamics as specified on POSCAR
   WARNING: If single coordinates had been selected the selection of coordinates
            is made according to the corresponding   d i r e c t   coordinates!
            Don't support selection of single cartesian coordinates -- sorry ...
  !
 charge density and potential will be updated during run
 spin polarized calculation
 Variant of blocked Davidson
 Davidson routine will perform the subspace rotation
 perform sub-space diagonalisation
    after iterative eigenvector-optimisation
 modified Broyden-mixing scheme, WC =      100.0
 initial mixing is a Kerker type mixing with AMIX =  0.4000 and BMIX =      1.0000
 Hartree-type preconditioning will be used
 using additional bands           42
 real space projection scheme for non local part
 use partial core corrections
 calculate Harris-corrections to forces 
   (improved forces if not selfconsistent)
 use gradient corrections 
 use of overlap-Matrix (Vanderbilt PP)
 Gauss-broadening in eV      SIGMA  =   0.20


--------------------------------------------------------------------------------------------------------


  energy-cutoff  :      400.00
  volume of cell :      925.69
      direct lattice vectors                 reciprocal lattice vectors
     5.536700000  0.000000000  0.000000000     0.180613001  0.000000000  0.000000000
     0.000000000  5.747300000  0.000000000     0.000000000  0.173994745  0.000000000
     0.000000000  0.000000000 29.090392640     0.000000000  0.000000000  0.034375610

  length of vectors
     5.536700000  5.747300000 29.090392640     0.180613001  0.173994745  0.034375610


 
 k-points in units of 2pi/SCALE and weight: KPOINTS created by Atomic Simulation Env
   0.00000000  0.00000000  0.00000000       1.000
 
 k-points in reciprocal lattice and weights: KPOINTS created by Atomic Simulation Env
   0.00000000  0.00000000  0.00000000       1.000
 
 position of ions in fractional coordinates (direct lattice) 
   0.00000000  0.50000000  0.00343756
   0.50000000  0.00000000  0.00343756
   0.50000000  0.00000000  0.13566163
   0.00000000  0.50000000  0.13566163
   0.99986929  0.49938438  0.26937126
   0.50013071  0.99938438  0.26937126
   0.48939587  0.00315503  0.40006453
   0.01060413  0.50315503  0.40006453
   0.50780000  0.54900000  0.06954959
   0.99220000  0.04900000  0.06954959
   0.49220000  0.45100000  0.20177366
   0.00780000  0.95100000  0.20177366
   0.50957389  0.54416646  0.33581737
   0.99042611  0.04416646  0.33581737
   0.77440000  0.80660000  0.01359237
   0.72560000  0.30660000  0.01359237
   0.42550000  0.98740000  0.06954959
   0.07450000  0.48740000  0.06954959
   0.72560000  0.30660000  0.12550682
   0.77440000  0.80660000  0.12550682
   0.22560000  0.19340000  0.14581644
   0.27440000  0.69340000  0.14581644
   0.57450000  0.01260000  0.20177366
   0.92550000  0.51260000  0.20177366
   0.28870533  0.69634117  0.25614362
   0.21129467  0.19634117  0.25614362
   0.79204805  0.80781865  0.27752619
   0.70795195  0.30781865  0.27752619
   0.42984338  0.00357119  0.33324504
   0.07015662  0.50357119  0.33324504
   0.71908670  0.30128723  0.38774270
   0.78091330  0.80128723  0.38774270
   0.21339458  0.19228727  0.40834875
   0.28660542  0.69228727  0.40834875
   0.00000000  0.62315878  0.47022484
   0.00000000  0.38311950  0.48748571
   0.00000000  0.40195910  0.52444123
 
 position of ions in cartesian coordinates  (Angst):
   0.00000000  2.87365000  0.10000000
   2.76835000  0.00000000  0.10000000
   2.76835000  0.00000000  3.94645000
   0.00000000  2.87365000  3.94645000
   5.53597629  2.87011185  7.83611561
   2.76907371  5.74376185  7.83611561
   2.70963810  0.01813291 11.63803417
   0.05871190  2.89178291 11.63803417
   2.81153626  3.15526770  2.02322500
   5.49351374  0.28161770  2.02322500
   2.72516374  2.59203230  5.86967500
   0.04318626  5.46568230  5.86967500
   2.82135774  3.12748789  9.76905917
   5.48369226  0.25383789  9.76905917
   4.28762048  4.63577218  0.39540736
   4.01742952  1.76212218  0.39540736
   2.35586585  5.67488402  2.02322500
   0.41248415  2.80123402  2.02322500
   4.01742952  1.76212218  3.65104264
   4.28762048  4.63577218  3.65104264
   1.24907952  1.11152782  4.24185736
   1.51927048  3.98517782  4.24185736
   3.18083415  0.07241598  5.86967500
   5.12421585  2.94606598  5.86967500
   1.59847480  4.00208159  7.45131844
   1.16987520  1.12843159  7.45131844
   4.38533242  4.64277614  8.07334595
   3.91971758  1.76912614  8.07334595
   2.37991384  0.02052470  9.69422912
   0.38843616  2.89417470  9.69422912
   3.98136735  1.73158810 11.27958744
   4.32368265  4.60523810 11.27958744
   1.18150177  1.10513260 11.87902533
   1.58684823  3.97878260 11.87902533
   0.00000000  3.58148045 13.67902533
   0.00000000  2.20190268 14.18115058
   0.00000000  2.31017954 15.25620120
 


--------------------------------------------------------------------------------------------------------


 k-point     1 :   0.0000 0.0000 0.0000  plane waves:   16779

 maximum and minimum number of plane-waves per node :      4200     4193

 maximum number of plane-waves:     16779
 maximum index in each direction: 
   IXMAX=    9   IYMAX=    9   IZMAX=   47
   IXMIN=   -9   IYMIN=   -9   IZMIN=  -47


 real space projection operators:
  total allocation   :       4011.11 KBytes
  max/ min on nodes  :       1008.15       1000.12


 parallel 3D FFT for wavefunctions:
    minimum data exchange during FFTs selected (reduces bandwidth)
 parallel 3D FFT for charge:
    minimum data exchange during FFTs selected (reduces bandwidth)


 total amount of memory used by VASP MPI-rank0    43220. kBytes
=======================================================================

   base      :      30000. kBytes
   nonlr-proj:       2340. kBytes
   fftplans  :       1875. kBytes
   grid      :       5378. kBytes
   one-center:        983. kBytes
   wavefun   :       2644. kBytes
 
     INWAV:  cpu time      0.0001: real time      0.0003
 Broyden mixing: mesh for mixing (old mesh)
   NGX = 19   NGY = 19   NGZ = 95
  (NGX  = 56   NGY  = 56   NGZ  =288)
  gives a total of  34295 points

 initial charge density was supplied:
 charge density of overlapping atoms calculated
 number of electron     295.0000000 magnetization       8.0000000
 keeping initial charge density in first step


--------------------------------------------------------------------------------------------------------


 Maximum index for non-local projection operator          447
 Maximum index for augmentation-charges          402 (set IRDMAX)


--------------------------------------------------------------------------------------------------------


 First call to EWALD:  gamma=   0.182
 Maximum number of real-space cells 4x 4x 1
 Maximum number of reciprocal cells 2x 2x 7

    FEWALD:  cpu time      0.0021: real time      0.0021


--------------------------------------- Ionic step        1  -------------------------------------------




--------------------------------------- Iteration      1(   1)  ---------------------------------------


    POTLOK:  cpu time      0.0350: real time      0.0359
    SETDIJ:  cpu time      0.8460: real time      0.8479
     EDDAV:  cpu time      0.3897: real time      0.3911
       DOS:  cpu time      0.0010: real time      0.0010
    --------------------------------------------
      LOOP:  cpu time      1.2718: real time      1.2760

 eigenvalue-minimisations  :   760
 total energy-change (2. order) : 0.4679786E+04  (-0.1112022E+05)
 number of electron     295.0000000 magnetization       8.0000000
 augmentation part      295.0000000 magnetization       8.0000000

 DIPCOR: dipole corrections for dipol
 direction  3 min pos   214,
 dipolmoment           0.000000      0.000000      0.000098 electrons x Angstroem
 Tr[quadrupol]     -1849.596211

 energy correction for charged system         0.000000 eV
 dipol+quadrupol energy correction           -0.000000 eV
 added-field ion interaction          0.002787 eV  (added to PSCEN)


 Free energy of the ion-electron system (eV)
  ---------------------------------------------------
  alpha Z        PSCENC =       617.34398607
  Ewald energy   TEWEN  =    139245.51901856
  -Hartree energ DENC   =   -164361.23756406
  -exchange      EXHF   =         0.00000000
  -V(xc)+E(xc)   XCENC  =      1235.33212615
  PAW double counting   =     21948.51529783   -22371.27871421
  entropy T*S    EENTRO =        -0.19342876
  eigenvalues    EBANDS =       464.56252028
  atomic energy  EATOM  =     27901.22237413
  Solvation  Ediel_sol  =         0.00000000
  ---------------------------------------------------
  free energy    TOTEN  =      4679.78561600 eV

  energy without entropy =     4679.97904476  energy(sigma->0) =     4679.88233038


--------------------------------------------------------------------------------------------------------




--------------------------------------- Iteration      1(   2)  ---------------------------------------


     EDDAV:  cpu time      0.3891: real time      0.3959
       DOS:  cpu time      0.0003: real time      0.0003
    --------------------------------------------
      LOOP:  cpu time      0.3894: real time      0.3961

 eigenvalue-minimisations  :   820
 total energy-change (2. order) :-0.3676730E+04  (-0.3385113E+04)
 number of electron     295.0000000 magnetization       8.0000000
 augmentation part      295.0000000 magnetization       8.0000000

 DIPCOR: dipole corrections for dipol
 direction  3 min pos   214,
 dipolmoment           0.000000      0.000000      0.000098 electrons x Angstroem
 Tr[quadrupol]     -1849.596211

 energy correction for charged system         0.000000 eV
 dipol+quadrupol energy correction           -0.000000 eV
 added-field ion interaction          0.002787 eV  (added to PSCEN)


 Free energy of the ion-electron system (eV)
  ---------------------------------------------------
  alpha Z        PSCENC =       617.34398607
  Ewald energy   TEWEN  =    139245.51901856
  -Hartree energ DENC   =   -164361.23756406
  -exchange      EXHF   =         0.00000000
  -V(xc)+E(xc)   XCENC  =      1235.33212615
  PAW double counting   =     21948.51529783   -22371.27871421
  entropy T*S    EENTRO =        -0.60742518
  eigenvalues    EBANDS =     -3211.75377078
  atomic energy  EATOM  =     27901.22237413
  Solvation  Ediel_sol  =         0.00000000
  ---------------------------------------------------
  free energy    TOTEN  =      1003.05532852 eV

  energy without entropy =     1003.66275370  energy(sigma->0) =     1003.35904111


--------------------------------------------------------------------------------------------------------




--------------------------------------- Iteration      1(   3)  ---------------------------------------


     EDDAV:  cpu time      0.4541: real time      0.4630
       DOS:  cpu time      0.0003: real time      0.0003
    --------------------------------------------
      LOOP:  cpu time      0.4544: real time      0.4633

 eigenvalue-minimisations  :   980
 total energy-change (2. order) :-0.1153823E+04  (-0.1106681E+04)
 number of electron     295.0000000 magnetization       8.0000000
 augmentation part      295.0000000 magnetization       8.0000000

 DIPCOR: dipole corrections for dipol
 direction  3 min pos   214,
 dipolmoment           0.000000      0.000000      0.000098 electrons x Angstroem
 Tr[quadrupol]     -1849.596211

 energy correction for charged system         0.000000 eV
 dipol+quadrupol energy correction           -0.000000 eV
 added-field ion interaction          0.002787 eV  (added to PSCEN)


 Free energy of the ion-electron system (eV)
  ---------------------------------------------------
  alpha Z        PSCENC =       617.34398607
  Ewald energy   TEWEN  =    139245.51901856
  -Hartree energ DENC   =   -164361.23756406
  -exchange      EXHF   =         0.00000000
  -V(xc)+E(xc)   XCENC  =      1235.33212615
  PAW double counting   =     21948.51529783   -22371.27871421
  entropy T*S    EENTRO =        -1.19930954
  eigenvalues    EBANDS =     -4364.98499826
  atomic energy  EATOM  =     27901.22237413
  Solvation  Ediel_sol  =         0.00000000
  ---------------------------------------------------
  free energy    TOTEN  =      -150.76778332 eV

  energy without entropy =     -149.56847378  energy(sigma->0) =     -150.16812855


--------------------------------------------------------------------------------------------------------




--------------------------------------- Iteration      1(   4)  ---------------------------------------


     EDDAV:  cpu time      0.5799: real time      0.5896
       DOS:  cpu time      0.0003: real time      0.0003
    --------------------------------------------
      LOOP:  cpu time      0.5802: real time      0.5899

 eigenvalue-minimisations  :  1300
 total energy-change (2. order) :-0.2047966E+03  (-0.1971239E+03)
 number of electron     295.0000000 magnetization       8.0000000
 augmentation part      295.0000000 magnetization       8.0000000

 DIPCOR: dipole corrections for dipol
 direction  3 min pos   214,
 dipolmoment           0.000000      0.000000      0.000098 electrons x Angstroem
 Tr[quadrupol]     -1849.596211

 energy correction for charged system         0.000000 eV
 dipol+quadrupol energy correction           -0.000000 eV
 added-field ion interaction          0.002787 eV  (added to PSCEN)


 Free energy of the ion-electron system (eV)
  ---------------------------------------------------
  alpha Z        PSCENC =       617.34398607
  Ewald energy   TEWEN  =    139245.51901856
  -Hartree energ DENC   =   -164361.23756406
  -exchange      EXHF   =         0.00000000
  -V(xc)+E(xc)   XCENC  =      1235.33212615
  PAW double counting   =     21948.51529783   -22371.27871421
  entropy T*S    EENTRO =        -1.58295666
  eigenvalues    EBANDS =     -4569.39791367
  atomic energy  EATOM  =     27901.22237413
  Solvation  Ediel_sol  =         0.00000000
  ---------------------------------------------------
  free energy    TOTEN  =      -355.56434586 eV

  energy without entropy =     -353.98138919  energy(sigma->0) =     -354.77286752


--------------------------------------------------------------------------------------------------------




--------------------------------------- Iteration      1(   5)  ---------------------------------------


     EDDAV:  cpu time      0.6366: real time      0.6380
       DOS:  cpu time      0.0004: real time      0.0004
    CHARGE:  cpu time      0.0195: real time      0.0196
    MIXING:  cpu time      0.0028: real time      0.0029
    --------------------------------------------
      LOOP:  cpu time      0.6594: real time      0.6609

 eigenvalue-minimisations  :  1380
 total energy-change (2. order) :-0.1723032E+02  (-0.1634231E+02)
 number of electron     295.0000208 magnetization       7.6555249
 augmentation part       49.7054370 magnetization       6.1686027

 DIPCOR: dipole corrections for dipol
 direction  3 min pos   214,
 dipolmoment           0.000000      0.000000      0.000098 electrons x Angstroem
 Tr[quadrupol]     -1849.596211

 energy correction for charged system         0.000000 eV
 dipol+quadrupol energy correction           -0.000000 eV
 added-field ion interaction          0.002787 eV  (added to PSCEN)


 Broyden mixing:
  rms(total) = 0.84950E+01    rms(broyden)= 0.84934E+01
  rms(prec ) = 0.90677E+01
  weight for this iteration     100.00

 Free energy of the ion-electron system (eV)
  ---------------------------------------------------
  alpha Z        PSCENC =       617.34398607
  Ewald energy   TEWEN  =    139245.51901856
  -Hartree energ DENC   =   -164361.23756406
  -exchange      EXHF   =         0.00000000
  -V(xc)+E(xc)   XCENC  =      1235.33212615
  PAW double counting   =     21948.51529783   -22371.27871421
  entropy T*S    EENTRO =        -1.37565948
  eigenvalues    EBANDS =     -4586.83553358
  atomic energy  EATOM  =     27901.22237413
  Solvation  Ediel_sol  =         0.00000000
  ---------------------------------------------------
  free energy    TOTEN  =      -372.79466859 eV

  energy without entropy =     -371.41900910  energy(sigma->0) =     -372.10683884


--------------------------------------------------------------------------------------------------------




--------------------------------------- Iteration      1(   6)  ---------------------------------------


    POTLOK:  cpu time      0.0397: real time      0.0401
    SETDIJ:  cpu time      0.9091: real time      0.9117
     EDDAV:  cpu time      0.5442: real time      0.5455
       DOS:  cpu time      0.0005: real time      0.0005
    CHARGE:  cpu time      0.0166: real time      0.0167
    MIXING:  cpu time      0.0016: real time      0.0016
    --------------------------------------------
      LOOP:  cpu time      1.5117: real time      1.5161

 eigenvalue-minimisations  :  1200
 total energy-change (2. order) :-0.2196581E+03  (-0.5086981E+03)
 number of electron     294.9999670 magnetization       7.6029592
 augmentation part       79.1157749 magnetization       6.1829817

 DIPCOR: dipole corrections for dipol
 direction  3 min pos   211,
 dipolmoment           0.000000      0.000000      1.287436 electrons x Angstroem
 Tr[quadrupol]     -1878.666632

 energy correction for charged system         0.000000 eV
 dipol+quadrupol energy correction           -0.162003 eV
 added-field ion interaction         14.207244 eV  (added to PSCEN)


 Broyden mixing:
  rms(total) = 0.30719E+02    rms(broyden)= 0.30718E+02
  rms(prec ) = 0.31786E+02
  weight for this iteration     100.00

 eigenvalues of (default mixing * dielectric matrix)
  average eigenvalue GAMMA=   0.0941
  0.0941

 Free energy of the ion-electron system (eV)
  ---------------------------------------------------
  alpha Z        PSCENC =       631.38644034
  Ewald energy   TEWEN  =    139245.51901856
  -Hartree energ DENC   =   -164778.82603196
  -exchange      EXHF   =         0.00000000
  -V(xc)+E(xc)   XCENC  =      1233.91159988
  PAW double counting   =     23270.32289309   -23675.51480078
  entropy T*S    EENTRO =        -0.37096185
  eigenvalues    EBANDS =     -4420.10327096
  atomic energy  EATOM  =     27901.22237413
  Solvation  Ediel_sol  =         0.00000000
  ---------------------------------------------------
  free energy    TOTEN  =      -592.45273955 eV

  energy without entropy =     -592.08177769  energy(sigma->0) =     -592.26725862


--------------------------------------------------------------------------------------------------------




--------------------------------------- Iteration      1(   7)  ---------------------------------------


    POTLOK:  cpu time      0.0313: real time      0.0392
    SETDIJ:  cpu time      0.9068: real time      0.9089
     EDDAV:  cpu time      0.6021: real time      0.6033
       DOS:  cpu time      0.0002: real time      0.0002
    CHARGE:  cpu time      0.0162: real time      0.0162
    MIXING:  cpu time      0.0012: real time      0.0012
    --------------------------------------------
      LOOP:  cpu time      1.5578: real time      1.5691

 eigenvalue-minimisations  :  1360
 total energy-change (2. order) : 0.1508536E+03  (-0.1367471E+03)
 number of electron     294.9999772 magnetization       7.4678869
 augmentation part       70.5716223 magnetization       6.4905107

 DIPCOR: dipole corrections for dipol
 direction  3 min pos   208,
 dipolmoment           0.000000      0.000000      0.057673 electrons x Angstroem
 Tr[quadrupol]     -1867.471117

 energy correction for charged system         0.000000 eV
 dipol+quadrupol energy correction           -0.000325 eV
 added-field ion interaction         -0.371362 eV  (added to PSCEN)


 Broyden mixing:
  rms(total) = 0.14820E+02    rms(broyden)= 0.14819E+02
  rms(prec ) = 0.16019E+02
  weight for this iteration     100.00

 eigenvalues of (default mixing * dielectric matrix)
  average eigenvalue GAMMA=   0.2625
  0.2625  0.2625

 Free energy of the ion-electron system (eV)
  ---------------------------------------------------
  alpha Z        PSCENC =       616.96951248
  Ewald energy   TEWEN  =    139245.51901856
  -Hartree energ DENC   =   -164597.97802737
  -exchange      EXHF   =         0.00000000
  -V(xc)+E(xc)   XCENC  =      1237.13849683
  PAW double counting   =     24629.61846929   -25054.89609474
  entropy T*S    EENTRO =        -0.53484642
  eigenvalues    EBANDS =     -4418.65802306
  atomic energy  EATOM  =     27901.22237413
  Solvation  Ediel_sol  =         0.00000000
  ---------------------------------------------------
  free energy    TOTEN  =      -441.59912030 eV

  energy without entropy =     -441.06427387  energy(sigma->0) =     -441.33169708


--------------------------------------------------------------------------------------------------------




--------------------------------------- Iteration      1(   8)  ---------------------------------------


    POTLOK:  cpu time      0.0301: real time      0.0382
    SETDIJ:  cpu time      0.9065: real time      0.9086
     EDDAV:  cpu time      0.6440: real time      0.6454
       DOS:  cpu time      0.0005: real time      0.0005
    CHARGE:  cpu time      0.0167: real time      0.0167
    MIXING:  cpu time      0.0013: real time      0.0013
    --------------------------------------------
      LOOP:  cpu time      1.5990: real time      1.6107

 eigenvalue-minimisations  :  1380
 total energy-change (2. order) :-0.6977584E+03  (-0.5134953E+03)
 number of electron     294.9999976 magnetization       7.4650552
 augmentation part       62.7724241 magnetization       5.8294888

 DIPCOR: dipole corrections for dipol
 direction  3 min pos   203,
 dipolmoment           0.000000      0.000000      4.501517 electrons x Angstroem
 Tr[quadrupol]     -1857.322454

 energy correction for charged system         0.000000 eV
 dipol+quadrupol energy correction           -1.980566 eV
 added-field ion interaction       -160.087699 eV  (added to PSCEN)


 Broyden mixing:
  rms(total) = 0.57876E+02    rms(broyden)= 0.57875E+02
  rms(prec ) = 0.62198E+02
  weight for this iteration     100.00

 eigenvalues of (default mixing * dielectric matrix)
  average eigenvalue GAMMA=   0.1775
  0.2625  0.2625  0.0077

 Free energy of the ion-electron system (eV)
  ---------------------------------------------------
  alpha Z        PSCENC =       455.27293482
  Ewald energy   TEWEN  =    139245.51901856
  -Hartree energ DENC   =   -164635.08744325
  -exchange      EXHF   =         0.00000000
  -V(xc)+E(xc)   XCENC  =      1241.15022985
  PAW double counting   =     26603.28782393   -27044.23139347
  entropy T*S    EENTRO =        -0.26793591
  eigenvalues    EBANDS =     -4906.22311627
  atomic energy  EATOM  =     27901.22237413
  Solvation  Ediel_sol  =         0.00000000
  ---------------------------------------------------
  free energy    TOTEN  =     -1139.35750760 eV

  energy without entropy =    -1139.08957169  energy(sigma->0) =    -1139.22353964


--------------------------------------------------------------------------------------------------------




--------------------------------------- Iteration      1(   9)  ---------------------------------------


    POTLOK:  cpu time      0.0310: real time      0.0400
    SETDIJ:  cpu time      0.9063: real time      0.9085
     EDDAV:  cpu time      0.5934: real time      0.5945
       DOS:  cpu time      0.0003: real time      0.0003
    CHARGE:  cpu time      0.0161: real time      0.0161
    MIXING:  cpu time      0.0013: real time      0.0013
    --------------------------------------------
      LOOP:  cpu time      1.5484: real time      1.5608

 eigenvalue-minimisations  :  1340
 total energy-change (2. order) : 0.3528057E+02  (-0.9299883E+02)
 number of electron     294.9999959 magnetization       7.4413225
 augmentation part       60.7272015 magnetization       5.2096139

 DIPCOR: dipole corrections for dipol
 direction  3 min pos   209,
 dipolmoment           0.000000      0.000000      4.007701 electrons x Angstroem
 Tr[quadrupol]     -1862.437420

 energy correction for charged system         0.000000 eV
 dipol+quadrupol energy correction           -1.569864 eV
 added-field ion interaction         -2.461883 eV  (added to PSCEN)


 Broyden mixing:
  rms(total) = 0.11514E+03    rms(broyden)= 0.11514E+03
  rms(prec ) = 0.11776E+03
  weight for this iteration     100.00

 eigenvalues of (default mixing * dielectric matrix)
  average eigenvalue GAMMA=   0.1355
  0.2638  0.2638  0.0087  0.0058

 Free energy of the ion-electron system (eV)
  ---------------------------------------------------
  alpha Z        PSCENC =       613.30945186
  Ewald energy   TEWEN  =    139245.51901856
  -Hartree energ DENC   =   -164623.12946041
  -exchange      EXHF   =         0.00000000
  -V(xc)+E(xc)   XCENC  =      1241.03734594
  PAW double counting   =     27169.41601844   -27610.51273787
  entropy T*S    EENTRO =        -0.63819661
  eigenvalues    EBANDS =     -5040.30074839
  atomic energy  EATOM  =     27901.22237413
  Solvation  Ediel_sol  =         0.00000000
  ---------------------------------------------------
  free energy    TOTEN  =     -1104.07693433 eV

  energy without entropy =    -1103.43873772  energy(sigma->0) =    -1103.75783603


--------------------------------------------------------------------------------------------------------




--------------------------------------- Iteration      1(  10)  ---------------------------------------


    POTLOK:  cpu time      0.0384: real time      0.0386
    SETDIJ:  cpu time      0.9063: real time      0.9084
     EDDAV:  cpu time      0.6114: real time      0.6125
       DOS:  cpu time      0.0003: real time      0.0003
    CHARGE:  cpu time      0.0161: real time      0.0161
    MIXING:  cpu time      0.0014: real time      0.0014
    --------------------------------------------
      LOOP:  cpu time      1.5739: real time      1.5773

 eigenvalue-minimisations  :  1380
 total energy-change (2. order) : 0.4033976E+03  (-0.3460384E+02)
 number of electron     295.0000038 magnetization       7.4354407
 augmentation part       55.1018785 magnetization       5.0469182

 DIPCOR: dipole corrections for dipol
 direction  3 min pos   209,
 dipolmoment           0.000000      0.000000      2.474137 electrons x Angstroem
 Tr[quadrupol]     -1860.647811

 energy correction for charged system         0.000000 eV
 dipol+quadrupol energy correction           -0.598300 eV
 added-field ion interaction         -1.519833 eV  (added to PSCEN)


 Broyden mixing:
  rms(total) = 0.70522E+02    rms(broyden)= 0.70522E+02
  rms(prec ) = 0.73008E+02
  weight for this iteration     100.00

 eigenvalues of (default mixing * dielectric matrix)
  average eigenvalue GAMMA=   0.1148
  0.2648  0.2648  0.0188  0.0188  0.0071

 Free energy of the ion-electron system (eV)
  ---------------------------------------------------
  alpha Z        PSCENC =       615.22306668
  Ewald energy   TEWEN  =    139245.51901856
  -Hartree energ DENC   =   -164583.80373095
  -exchange      EXHF   =         0.00000000
  -V(xc)+E(xc)   XCENC  =      1240.56397187
  PAW double counting   =     25899.19857989   -26343.00691304
  entropy T*S    EENTRO =        -0.35945634
  eigenvalues    EBANDS =     -4675.23621624
  atomic energy  EATOM  =     27901.22237413
  Solvation  Ediel_sol  =         0.00000000
  ---------------------------------------------------
  free energy    TOTEN  =      -700.67930542 eV

  energy without entropy =     -700.31984908  energy(sigma->0) =     -700.49957725


--------------------------------------------------------------------------------------------------------




--------------------------------------- Iteration      1(  11)  ---------------------------------------


    POTLOK:  cpu time      0.0302: real time      0.0384
    SETDIJ:  cpu time      0.9069: real time      0.9090
     EDDAV:  cpu time      0.6018: real time      0.6030
       DOS:  cpu time      0.0003: real time      0.0003
    CHARGE:  cpu time      0.0161: real time      0.0162
    MIXING:  cpu time      0.0013: real time      0.0013
    --------------------------------------------
      LOOP:  cpu time      1.5566: real time      1.5681

 eigenvalue-minimisations  :  1360
 total energy-change (2. order) : 0.9096428E+02  (-0.1502067E+02)
 number of electron     295.0000041 magnetization       7.4257723
 augmentation part       54.7710184 magnetization       4.6611052

 DIPCOR: dipole corrections for dipol
 direction  3 min pos   215,
 dipolmoment           0.000000      0.000000      2.068141 electrons x Angstroem
 Tr[quadrupol]     -1863.457475

 energy correction for charged system         0.000000 eV
 dipol+quadrupol energy correction           -0.418053 eV
 added-field ion interaction         71.008540 eV  (added to PSCEN)


 Broyden mixing:
  rms(total) = 0.12724E+03    rms(broyden)= 0.12724E+03
  rms(prec ) = 0.12837E+03
  weight for this iteration     100.00

 eigenvalues of (default mixing * dielectric matrix)
  average eigenvalue GAMMA=   0.1045
  0.2673  0.2673  0.0369  0.0369  0.0116  0.0067

 Free energy of the ion-electron system (eV)
  ---------------------------------------------------
  alpha Z        PSCENC =       687.93168595
  Ewald energy   TEWEN  =    139245.51901856
  -Hartree energ DENC   =   -164587.12652605
  -exchange      EXHF   =         0.00000000
  -V(xc)+E(xc)   XCENC  =      1240.57821193
  PAW double counting   =     26697.66374223   -27141.84382954
  entropy T*S    EENTRO =        -0.36785597
  eigenvalues    EBANDS =     -4653.29185114
  atomic energy  EATOM  =     27901.22237413
  Solvation  Ediel_sol  =         0.00000000
  ---------------------------------------------------
  free energy    TOTEN  =      -609.71502989 eV

  energy without entropy =     -609.34717392  energy(sigma->0) =     -609.53110191


--------------------------------------------------------------------------------------------------------




--------------------------------------- Iteration      1(  12)  ---------------------------------------


    POTLOK:  cpu time      0.0300: real time      0.0386
    SETDIJ:  cpu time      0.9066: real time      0.9087
     EDDAV:  cpu time      0.5536: real time      0.5547
       DOS:  cpu time      0.0003: real time      0.0003
    CHARGE:  cpu time      0.0158: real time      0.0158
    MIXING:  cpu time      0.0013: real time      0.0013
    --------------------------------------------
      LOOP:  cpu time      1.5077: real time      1.5196

 eigenvalue-minimisations  :  1240
 total energy-change (2. order) : 0.1569524E+03  (-0.2698946E+02)
 number of electron     295.0000077 magnetization       7.4124916
 augmentation part       56.4280771 magnetization       5.9687213

 DIPCOR: dipole corrections for dipol
 direction  3 min pos   215,
 dipolmoment           0.000000      0.000000      1.062874 electrons x Angstroem
 Tr[quadrupol]     -1861.798193

 energy correction for charged system         0.000000 eV
 dipol+quadrupol energy correction           -0.110417 eV
 added-field ion interaction         36.493215 eV  (added to PSCEN)


 Broyden mixing:
  rms(total) = 0.14582E+03    rms(broyden)= 0.14582E+03
  rms(prec ) = 0.14629E+03
  weight for this iteration     100.00

 eigenvalues of (default mixing * dielectric matrix)
  average eigenvalue GAMMA=   0.0962
  0.2675  0.2675  0.0426  0.0426  0.0276  0.0185  0.0068

 Free energy of the ion-electron system (eV)
  ---------------------------------------------------
  alpha Z        PSCENC =       653.72399754
  Ewald energy   TEWEN  =    139245.51901856
  -Hartree energ DENC   =   -164579.58600434
  -exchange      EXHF   =         0.00000000
  -V(xc)+E(xc)   XCENC  =      1240.51477411
  PAW double counting   =     26316.21518635   -26760.97357610
  entropy T*S    EENTRO =        -0.36585653
  eigenvalues    EBANDS =     -4469.03255506
  atomic energy  EATOM  =     27901.22237413
  Solvation  Ediel_sol  =         0.00000000
  ---------------------------------------------------
  free energy    TOTEN  =      -452.76264134 eV

  energy without entropy =     -452.39678481  energy(sigma->0) =     -452.57971307


--------------------------------------------------------------------------------------------------------




--------------------------------------- Iteration      1(  13)  ---------------------------------------


    POTLOK:  cpu time      0.0341: real time      0.0429
    SETDIJ:  cpu time      0.9097: real time      0.9120
     EDDAV:  cpu time      0.5535: real time      0.5549
       DOS:  cpu time      0.0003: real time      0.0004
    CHARGE:  cpu time      0.0166: real time      0.0166
    MIXING:  cpu time      0.0017: real time      0.0017
    --------------------------------------------
      LOOP:  cpu time      1.5158: real time      1.5285

 eigenvalue-minimisations  :  1240
 total energy-change (2. order) :-0.3004757E+02  (-0.6877148E+01)
 number of electron     295.0000080 magnetization       7.3924526
 augmentation part       55.7002389 magnetization       6.1227102

 DIPCOR: dipole corrections for dipol
 direction  3 min pos   213,
 dipolmoment           0.000000      0.000000      1.259540 electrons x Angstroem
 Tr[quadrupol]     -1861.593404

 energy correction for charged system         0.000000 eV
 dipol+quadrupol energy correction           -0.155058 eV
 added-field ion interaction         28.572521 eV  (added to PSCEN)


 Broyden mixing:
  rms(total) = 0.14891E+03    rms(broyden)= 0.14891E+03
  rms(prec ) = 0.14941E+03
  weight for this iteration     100.00

 eigenvalues of (default mixing * dielectric matrix)
  average eigenvalue GAMMA=   0.1019
  0.2696  0.2696  0.0697  0.0697  0.0534  0.0534  0.0231  0.0068

 Free energy of the ion-electron system (eV)
  ---------------------------------------------------
  alpha Z        PSCENC =       645.75866182
  Ewald energy   TEWEN  =    139245.51901856
  -Hartree energ DENC   =   -164595.84955597
  -exchange      EXHF   =         0.00000000
  -V(xc)+E(xc)   XCENC  =      1240.85410208
  PAW double counting   =     26280.75941723   -26725.71387245
  entropy T*S    EENTRO =        -0.32461038
  eigenvalues    EBANDS =     -4475.03574316
  atomic energy  EATOM  =     27901.22237413
  Solvation  Ediel_sol  =         0.00000000
  ---------------------------------------------------
  free energy    TOTEN  =      -482.81020813 eV

  energy without entropy =     -482.48559776  energy(sigma->0) =     -482.64790295


--------------------------------------------------------------------------------------------------------




--------------------------------------- Iteration      1(  14)  ---------------------------------------


    POTLOK:  cpu time      0.0306: real time      0.0393
    SETDIJ:  cpu time      0.9064: real time      0.9085
     EDDAV:  cpu time      0.5721: real time      0.5733
       DOS:  cpu time      0.0002: real time      0.0002
    CHARGE:  cpu time      0.0159: real time      0.0159
    MIXING:  cpu time      0.0016: real time      0.0016
    --------------------------------------------
      LOOP:  cpu time      1.5269: real time      1.5388

 eigenvalue-minimisations  :  1280
 total energy-change (2. order) : 0.7939591E+02  (-0.2126767E+02)
 number of electron     295.0000075 magnetization       7.3899102
 augmentation part       52.8596441 magnetization       5.9724850

 DIPCOR: dipole corrections for dipol
 direction  3 min pos   212,
 dipolmoment           0.000000      0.000000      0.456929 electrons x Angstroem
 Tr[quadrupol]     -1854.378597

 energy correction for charged system         0.000000 eV
 dipol+quadrupol energy correction           -0.020407 eV
 added-field ion interaction          7.703872 eV  (added to PSCEN)


 Broyden mixing:
  rms(total) = 0.14918E+03    rms(broyden)= 0.14918E+03
  rms(prec ) = 0.14933E+03
  weight for this iteration     100.00

 eigenvalues of (default mixing * dielectric matrix)
  average eigenvalue GAMMA=   0.1025
  0.2711  0.2711  0.0914  0.0914  0.0584  0.0584  0.0502  0.0238  0.0068

 Free energy of the ion-electron system (eV)
  ---------------------------------------------------
  alpha Z        PSCENC =       625.02466489
  Ewald energy   TEWEN  =    139245.51901856
  -Hartree energ DENC   =   -164427.21988895
  -exchange      EXHF   =         0.00000000
  -V(xc)+E(xc)   XCENC  =      1240.96981438
  PAW double counting   =     25793.99383993   -26239.00758480
  entropy T*S    EENTRO =        -0.39718338
  eigenvalues    EBANDS =     -4543.51935448
  atomic energy  EATOM  =     27901.22237413
  Solvation  Ediel_sol  =         0.00000000
  ---------------------------------------------------
[...]
    3        0.016   0.023   2.447   0.000   2.486
    4       -0.016  -0.024  -2.403   0.000  -2.442
    5        0.020   0.024   2.582   0.000   2.626
    6        0.019   0.023   2.622   0.000   2.664
    7        0.018   0.018   2.150   0.000   2.186
    8       -0.017  -0.021  -2.155   0.000  -2.194
    9        0.001   0.001   0.014   0.011   0.028
   10        0.000   0.001   0.016   0.009   0.026
   11       -0.000  -0.001   0.004   0.007   0.010
   12        0.000  -0.000   0.008   0.007   0.015
   13       -0.000  -0.001   0.006   0.008   0.014
   14       -0.000  -0.002   0.008   0.007   0.014
   15        0.001  -0.042   0.000   0.000  -0.041
   16        0.002  -0.037   0.000   0.000  -0.035
   17        0.001   0.016   0.000   0.000   0.016
   18       -0.002  -0.022   0.000   0.000  -0.024
   19        0.000  -0.018   0.000   0.000  -0.017
   20        0.001   0.032   0.000   0.000   0.034
   21        0.000   0.027   0.000   0.000   0.027
   22       -0.000  -0.024   0.000   0.000  -0.024
   23        0.000   0.034   0.000   0.000   0.034
   24       -0.000  -0.013   0.000   0.000  -0.013
   25        0.001  -0.017   0.000   0.000  -0.016
   26        0.001  -0.014   0.000   0.000  -0.014
   27        0.000  -0.010   0.000   0.000  -0.010
   28        0.001  -0.014   0.000   0.000  -0.013
   29        0.000   0.005   0.000   0.000   0.005
   30       -0.000   0.020   0.000   0.000   0.020
   31       -0.000   0.003   0.000   0.000   0.002
   32        0.001   0.004   0.000   0.000   0.004
   33        0.000  -0.022   0.000   0.000  -0.022
   34        0.001   0.010   0.000   0.000   0.011
   35        0.006   0.390   0.000   0.000   0.396
   36        0.000   0.211   0.000   0.000   0.212
   37       -0.009   0.002   0.000   0.000  -0.008
--------------------------------------------------
tot          0.079   0.600   7.790   0.050   8.519
 
    CHARGE:  cpu time      0.0152: real time      0.0152
    FORLOC:  cpu time      0.0035: real time      0.0035
    FORNL :  cpu time      0.0690: real time      0.0696
    STRESS:  cpu time      0.2084: real time      0.2092
    FORCOR:  cpu time      0.0311: real time      0.0311
    FORHAR:  cpu time      0.0059: real time      0.0059
    MIXING:  cpu time      0.0028: real time      0.0028
    OFIELD:  cpu time      0.0000: real time      0.0000

  FORCE on cell =-STRESS in cart. coord.  units (eV):
  Direction    XX          YY          ZZ          XY          YZ          ZX
  --------------------------------------------------------------------------------------
  Alpha Z   617.34120   617.34120   617.34120
  Ewald  152461.87769152395.57083************     6.92947   -58.43640   -99.98739
  Hartree159670.17580159734.87275************     9.09769   -24.36673   -77.95638
  E(xc)   -1427.58864 -1428.21026 -1427.81397    -0.03199    -0.06986    -0.09316
  Local  ************************315664.25093   -19.72652    64.87961   178.35221
  n-local   132.21156   116.48799   121.14008    -0.07400     0.12236     2.33949
  augment   622.56750   620.46476   622.04248     1.84762     0.26318    -0.19845
  Kinetic  5146.35691  5109.04990  5081.52508     3.57479    14.86979    -3.09457
  Fock        0.00000     0.00000     0.00000     0.00000     0.00000     0.00000
  -------------------------------------------------------------------------------------
  Total      10.75716    -4.53962   -22.01701     1.61705    -2.73806    -0.63825
  in kB      18.61847    -7.85716   -38.10697     2.79878    -4.73902    -1.10469
  external pressure =       -9.12 kB  Pullay stress =        0.00 kB


 VOLUME and BASIS-vectors are now :
 -----------------------------------------------------------------------------
  energy-cutoff  :      400.00
  volume of cell :      925.69
      direct lattice vectors                 reciprocal lattice vectors
     5.536700000  0.000000000  0.000000000     0.180613001  0.000000000  0.000000000
     0.000000000  5.747300000  0.000000000     0.000000000  0.173994745  0.000000000
     0.000000000  0.000000000 29.090392640     0.000000000  0.000000000  0.034375610

  length of vectors
     5.536700000  5.747300000 29.090392640     0.180613001  0.173994745  0.034375610


 FORCES acting on ions
    electron-ion (+dipol)            ewald-force                    non-local-force                 convergence-correction
 -----------------------------------------------------------------------------------------------
   -.246E+03 -.372E+02 0.454E+04   0.244E+03 0.366E+02 -.453E+04   0.124E+01 0.167E+01 -.725E+01   0.381E+00 0.260E+00 -.171E+01
   0.248E+03 -.377E+02 0.454E+04   -.244E+03 0.366E+02 -.453E+04   -.154E+01 0.224E+01 -.640E+01   -.569E+00 -.710E-01 -.256E+01
   0.696E+01 0.681E-01 0.190E+04   -.684E+01 -.254E-01 -.190E+04   -.211E+00 -.126E+00 -.738E+00   0.125E-01 0.476E-01 -.191E+00
   -.692E+01 0.901E-01 0.190E+04   0.684E+01 -.332E-01 -.190E+04   0.966E-01 0.113E-01 -.434E+00   0.311E-02 -.528E-01 -.519E+00
   -.384E+01 0.236E+01 -.103E+04   0.433E+01 -.273E+01 0.103E+04   -.155E+00 0.169E+00 -.531E+00   -.164E+00 -.104E+00 0.625E+00
   0.478E+01 0.333E+00 -.103E+04   -.509E+01 -.484E+00 0.103E+04   0.467E-01 0.149E+00 0.231E+00   0.238E+00 -.217E+00 0.670E+00
   -.101E+03 0.191E+02 -.403E+04   0.974E+02 -.157E+02 0.402E+04   0.290E+01 -.313E+01 0.450E+01   0.719E+00 0.667E-01 0.150E+01
   0.836E+02 0.584E+02 -.378E+04   -.810E+02 -.536E+02 0.378E+04   -.199E+01 -.328E+01 0.181E+01   -.641E+00 0.318E+00 0.141E+01
   0.721E+02 0.494E+02 0.308E+04   -.716E+02 -.487E+02 -.308E+04   0.772E+00 -.181E+01 0.406E+00   -.133E+00 -.255E-01 -.972E+00
   -.721E+02 0.495E+02 0.308E+04   0.716E+02 -.487E+02 -.308E+04   -.730E+00 -.179E+01 0.386E+00   -.422E-02 0.288E-01 -.896E+00
   -.141E+02 -.544E+02 0.401E+03   0.140E+02 0.533E+02 -.401E+03   -.452E+00 0.200E+01 -.247E+00   0.341E-01 0.271E-02 0.650E-01
   0.140E+02 -.544E+02 0.401E+03   -.139E+02 0.532E+02 -.401E+03   0.420E+00 0.201E+01 -.246E+00   -.122E-01 0.280E-01 0.125E+00
   0.185E+02 0.386E+02 -.230E+04   -.181E+02 -.386E+02 0.230E+04   -.359E+00 -.336E+00 -.773E+00   0.284E+00 0.128E+00 0.109E+01
   -.186E+02 0.276E+02 -.230E+04   0.179E+02 -.273E+02 0.230E+04   0.726E+00 -.155E+00 -.888E+00   -.404E+00 -.176E+00 0.108E+01
   -.890E+02 0.216E+02 0.214E+04   0.952E+02 -.245E+02 -.215E+04   -.222E+01 0.290E+01 0.615E+01   -.384E+00 0.227E+00 -.679E+00
   0.898E+02 0.226E+02 0.214E+04   -.952E+02 -.245E+02 -.215E+04   0.123E+01 0.134E+01 0.670E+01   -.428E+00 -.319E+00 -.688E+00
   0.764E+02 -.177E+02 0.169E+04   -.778E+02 0.186E+02 -.169E+04   0.108E+01 0.129E+00 -.351E+01   0.296E-01 -.735E-01 -.850E+00
   -.766E+02 -.176E+02 0.169E+04   0.778E+02 0.186E+02 -.169E+04   -.102E+01 -.249E+00 -.285E+01   0.127E+00 0.313E-01 -.275E+00
   0.703E+02 0.276E+02 0.107E+04   -.745E+02 -.297E+02 -.108E+04   -.163E+00 0.147E+01 -.441E+01   -.293E-01 0.300E-01 -.191E+00
   -.702E+02 0.277E+02 0.108E+04   0.745E+02 -.298E+02 -.108E+04   0.106E+00 0.151E+01 -.469E+01   0.319E-01 -.634E-01 -.157E+00
   0.691E+02 -.278E+02 0.821E+03   -.734E+02 0.297E+02 -.819E+03   -.153E+01 -.230E+01 -.147E+01   -.186E-01 0.394E-01 -.709E-01
   -.691E+02 -.277E+02 0.821E+03   0.734E+02 0.297E+02 -.819E+03   0.158E+01 -.219E+01 -.144E+01   0.332E-01 -.304E-01 -.118E+00
   -.437E+02 0.183E+02 0.210E+03   0.460E+02 -.190E+02 -.208E+03   -.270E+01 -.213E+01 -.451E+01   0.268E-01 -.245E-02 0.133E+00
   0.445E+02 0.180E+02 0.209E+03   -.460E+02 -.190E+02 -.208E+03   0.217E+01 -.186E+01 -.466E+01   -.496E-01 -.230E-01 0.978E-01
   -.557E+02 -.109E+02 -.373E+03   0.596E+02 0.113E+02 0.372E+03   -.166E+01 -.278E+00 -.146E+01   0.294E-01 0.429E-01 0.179E+00
   0.554E+02 -.112E+02 -.374E+03   -.594E+02 0.116E+02 0.372E+03   0.126E+01 0.450E-01 -.809E+00   -.147E-01 0.215E-01 0.145E+00
   -.572E+02 0.178E+02 -.635E+03   0.618E+02 -.190E+02 0.636E+03   -.771E+01 0.533E+01 -.491E+01   -.168E+00 0.134E+00 0.308E+00
   0.573E+02 0.173E+02 -.636E+03   -.617E+02 -.182E+02 0.638E+03   0.744E+01 0.551E+01 -.495E+01   0.123E+00 0.772E-01 0.287E+00
   0.427E+02 -.140E+02 -.124E+04   -.467E+02 0.138E+02 0.124E+04   0.345E+01 0.372E+01 0.814E+00   0.252E+00 -.104E+00 0.644E+00
   -.436E+02 -.697E+01 -.125E+04   0.456E+02 0.752E+01 0.125E+04   -.182E+01 0.280E+01 0.916E+00   -.995E-01 0.421E-01 -.207E-01
   0.477E+02 0.436E+01 -.186E+04   -.482E+02 -.249E+01 0.186E+04   0.168E+01 -.503E+01 -.852E+01   -.461E+00 -.480E+00 0.843E+00
   -.863E+01 -.321E+02 -.185E+04   0.105E+02 0.331E+02 0.185E+04   -.157E+01 -.836E+01 -.493E+01   -.366E+00 0.323E+00 0.822E+00
   0.714E+02 0.382E+00 -.208E+04   -.823E+02 0.904E+00 0.209E+04   0.883E+01 -.431E+00 -.209E+02   0.627E+00 -.714E+00 0.889E+00
   -.155E+03 -.505E+02 -.205E+04   0.164E+03 0.515E+02 0.206E+04   -.898E+01 -.379E+01 -.157E+02   0.536E+00 0.423E+00 0.816E+00
   0.367E+02 -.287E+03 -.223E+04   -.359E+02 0.344E+03 0.222E+04   0.483E+00 -.434E+02 0.137E+02   -.591E-01 -.536E+00 0.896E+00
   0.219E+02 0.262E+03 -.226E+04   -.220E+02 -.317E+03 0.224E+04   0.747E+00 0.447E+02 0.226E+02   -.290E-01 0.613E+00 -.394E-01
   0.760E+00 0.994E+01 -.397E+03   -.705E+00 -.100E+02 0.400E+03   -.259E-01 0.511E+00 -.612E+01   -.145E-02 0.251E-01 -.107E+00
 -----------------------------------------------------------------------------------------------
   0.998E-01 0.515E+01 0.234E+02   0.594E-13 -.746E-13 -.364E-11   0.141E+01 -.244E+01 -.552E+02   -.548E+00 -.820E-01 0.257E+01
 
 
 POSITION                                       TOTAL-FORCE (eV/Angst)
 -----------------------------------------------------------------------------------
      0.00000      2.87365      0.10000        -0.403255      1.234574      2.392465
      2.76835      0.00000      0.10000         1.528392      1.000065      3.584259
      2.76835      0.00000      3.94645        -0.108775     -0.106278      1.473547
      0.00000      2.87365      3.94645        -0.012912     -0.055600      1.452865
      5.53433      2.88617      7.82672         0.146779     -0.380695      1.370180
      2.77258      0.01317      7.82591        -0.052551     -0.290314      1.334837
      2.67973      0.03616     11.61231        -0.361424      0.321532     -0.043316
      0.08161      2.93431     11.68230         0.019933      1.724090      1.174725
      2.81154      3.15527      2.02323         1.092862     -1.180564      0.676448
      5.49351      0.28162      2.02323        -1.292129     -1.071759      0.673595
      2.72516      2.59203      5.86967        -0.551562      0.766092      1.041765
      0.04319      5.46568      5.86967         0.513420      0.743210      1.045648
      2.83701      3.13550      9.76415         0.332260     -0.231950      2.365369
      5.46773      0.25628      9.76427        -0.392366     -0.075137      2.162738
      4.28762      4.63577      0.39541         3.496554      0.129363      2.654323
      4.01743      1.76212      0.39541        -4.616589     -0.941401      2.798350
      2.35587      5.67488      2.02323        -0.329560      0.837262     -1.818830
      0.41248      2.80123      2.02323         0.260972      0.642893     -1.097532
      4.01743      1.76212      3.65104        -4.430359     -0.735810     -4.978100
      4.28762      4.63577      3.65104         4.371938     -0.692230     -5.024534
      1.24908      1.11153      4.24186        -5.873749     -0.360993      1.208542
      1.51927      3.98518      4.24186         5.859290     -0.305805      1.199089
      3.18083      0.07242      5.86967        -0.462492     -2.896124     -2.422846
      5.12422      2.94607      5.86967         0.534856     -2.968672     -2.493813
      1.57336      4.01658      7.47850         2.225260      0.076370     -1.992352
      1.19501      1.14168      7.47782        -2.797638      0.477839     -1.391302
      4.36238      4.68344      8.09036        -3.300675      4.211908     -2.491497
      3.94287      1.80832      8.09026         3.152730      4.590949     -2.396244
      2.37479      5.72005      9.69768        -0.319388      3.349119      0.948956
      0.39038      2.84823      9.69193         0.060880      3.317477      3.753923
      3.95212      1.70100     11.33269         0.630977     -3.707254     -3.855634
      4.35357      4.58340     11.32535        -0.119430     -7.120505      0.210568
      1.19354      1.02521     11.95506        -1.484879      0.069705     -9.272051
      1.58357      3.92611     11.93126         0.906103     -2.401679     -3.957248
      5.53385      3.44836     13.69630         1.189628     12.235513      2.507263
      5.53156      2.28625     14.13226         0.585725    -10.566996      9.855373
      5.53640      2.32492     15.22902         0.001174      0.361806     -2.649526
 -----------------------------------------------------------------------------------
    total drift:                                0.964633      2.627006    -29.280110


--------------------------------------------------------------------------------------------------------



  FREE ENERGIE OF THE ION-ELECTRON SYSTEM (eV)
  ---------------------------------------------------
  free  energy   TOTEN  =      -296.23947728 eV

  energy  without entropy=     -295.98423366  energy(sigma->0) =     -296.11185547
 
 d Force = 0.1849238E+00[-0.132E+01, 0.169E+01]  d Energy = 0.4825482E+00-0.298E+00
 d Force = 0.2428181E+03[ 0.238E+03, 0.247E+03]  d Ewald  = 0.2428959E+03-0.777E-01


--------------------------------------------------------------------------------------------------------


    POTLOK:  cpu time      0.9373: real time      0.9398


--------------------------------------------------------------------------------------------------------


 stress matrix after NEB project (eV)
     10.75716      1.61734     -0.63825
      1.61705     -4.53962     -2.73704
     -0.63781     -2.73806    -22.01701
  FORCES: max atom, RMS    14.461426    4.383098
  FORCE total and by dimension   26.661344   12.235513
  Stress total and by dimension   25.339818   22.017006
 Conjugate gradient step on ions:
 trial-energy change:   -0.482548  1 .order   -0.184924   -1.688521    1.318674
  (g-gl).g = 0.421E+01      g.g   = 0.421E+01  gl.gl    = 0.382E+01
 g(Force)  = 0.421E+01   g(Stress)= 0.000E+00 ortho     = 0.423E-02
 gamma     =   1.10077
 trial     =   0.40059
 opt step  =   0.27592  (harmonic =   0.22493) maximal distance =0.02903901
 next E    =  -296.435701   (d E  =  -0.67877)


--------------------------------------------------------------------------------------------------------


     LOOP+:  cpu time     41.7797: real time     42.0733
 vacuum level on the upper side and lower side of the slab         5.334         5.659
    4ORBIT:  cpu time      0.0000: real time      0.0000



 total charge

# of ion       s       p       d       f       tot
--------------------------------------------------
    1        0.266   6.182   4.119   0.000  10.567
    2        0.286   6.174   4.072   0.000  10.532
    3        0.284   6.361   4.061   0.000  10.706
    4        0.285   6.361   4.061   0.000  10.706
    5        0.285   6.345   4.041   0.000  10.670
    6        0.283   6.344   4.033   0.000  10.660
    7        0.270   6.299   3.978   0.000  10.547
    8        0.271   6.315   3.976   0.000  10.563
    9        2.006   5.717   0.553   0.244   8.521
   10        2.006   5.717   0.554   0.245   8.523
   11        2.002   5.726   0.550   0.250   8.528
   12        2.002   5.726   0.550   0.250   8.528
   13        2.002   5.716   0.561   0.258   8.538
   14        2.002   5.716   0.562   0.257   8.537
   15        1.604   3.443   0.000   0.000   5.046
   16        1.603   3.437   0.000   0.000   5.041
   17        1.563   3.533   0.000   0.000   5.096
   18        1.561   3.537   0.000   0.000   5.098
   19        1.587   3.502   0.000   0.000   5.089
   20        1.587   3.504   0.000   0.000   5.091
   21        1.585   3.513   0.000   0.000   5.098
   22        1.585   3.514   0.000   0.000   5.099
   23        1.565   3.540   0.000   0.000   5.105
   24        1.564   3.539   0.000   0.000   5.103
   25        1.562   3.493   0.000   0.000   5.055
   26        1.561   3.493   0.000   0.000   5.055
   27        1.533   3.514   0.000   0.000   5.048
   28        1.535   3.513   0.000   0.000   5.048
   29        1.523   3.553   0.000   0.000   5.076
   30        1.520   3.555   0.000   0.000   5.075
   31        1.554   3.432   0.000   0.000   4.987
   32        1.562   3.430   0.000   0.000   4.993
   33        1.542   3.418   0.000   0.000   4.960
   34        1.541   3.439   0.000   0.000   4.979
   35        1.610   3.418   0.000   0.000   5.028
   36        1.560   3.514   0.000   0.000   5.074
   37        0.531   0.032   0.000   0.000   0.563
--------------------------------------------------
tot         49.189 161.566  35.671   1.505 247.932



 magnetization (x)

# of ion       s       p       d       f       tot
--------------------------------------------------
    1        0.041   0.043   3.284   0.000   3.368
    2       -0.006  -0.006  -0.794   0.000  -0.806
    3        0.016   0.023   2.447   0.000   2.486
    4       -0.016  -0.024  -2.403   0.000  -2.442
    5        0.020   0.024   2.582   0.000   2.626
    6        0.019   0.023   2.622   0.000   2.664
    7        0.018   0.018   2.150   0.000   2.186
    8       -0.017  -0.021  -2.155   0.000  -2.194
    9        0.001   0.001   0.014   0.011   0.028
   10        0.000   0.001   0.016   0.009   0.026
   11       -0.000  -0.001   0.004   0.007   0.010
   12        0.000  -0.000   0.008   0.007   0.015
   13       -0.000  -0.001   0.006   0.008   0.014
   14       -0.000  -0.002   0.008   0.007   0.014
   15        0.001  -0.042   0.000   0.000  -0.041
   16        0.002  -0.037   0.000   0.000  -0.035
   17        0.001   0.016   0.000   0.000   0.016
   18       -0.002  -0.022   0.000   0.000  -0.024
   19        0.000  -0.018   0.000   0.000  -0.017
   20        0.001   0.032   0.000   0.000   0.034
   21        0.000   0.027   0.000   0.000   0.027
   22       -0.000  -0.024   0.000   0.000  -0.024
   23        0.000   0.034   0.000   0.000   0.034
   24       -0.000  -0.013   0.000   0.000  -0.013
   25        0.001  -0.017   0.000   0.000  -0.016
   26        0.001  -0.014   0.000   0.000  -0.014
   27        0.000  -0.010   0.000   0.000  -0.010
   28        0.001  -0.014   0.000   0.000  -0.013
   29        0.000   0.005   0.000   0.000   0.005
   30       -0.000   0.020   0.000   0.000   0.020
   31       -0.000   0.003   0.000   0.000   0.002
   32        0.001   0.004   0.000   0.000   0.004
   33        0.000  -0.022   0.000   0.000  -0.022
   34        0.001   0.010   0.000   0.000   0.011
   35        0.006   0.390   0.000   0.000   0.396
   36        0.000   0.211   0.000   0.000   0.212
   37       -0.009   0.002   0.000   0.000  -0.008
--------------------------------------------------
tot          0.079   0.600   7.790   0.050   8.519
 

 total amount of memory used by VASP MPI-rank0    43220. kBytes
=======================================================================

   base      :      30000. kBytes
   nonlr-proj:       2340. kBytes
   fftplans  :       1875. kBytes
   grid      :       5378. kBytes
   one-center:        983. kBytes
   wavefun   :       2644. kBytes
 
  
  
 General timing and accounting informations for this job:
 ========================================================
  
                  Total CPU time used (sec):      224.951
                            User time (sec):      221.670
                          System time (sec):        3.281
                         Elapsed time (sec):      226.874
  
                   Maximum memory used (kb):      207592.
                   Average memory used (kb):          N/A
  
                          Minor page faults:        74878
                          Major page faults:            0
                 Voluntary context switches:         3744
