 running   40 mpi-ranks, on    1 nodes
 distrk:  each k-point on   40 cores,    1 groups
 distr:  one band on    4 cores,   10 groups
 vasp.6.4.3 19Mar24 (build Jul 09 2024 15:45:28) complex                        
  
 POSCAR found type information on POSCAR CrLaO H 
 POSCAR found :  4 types and      37 ions
 scaLAPACK will be used
 -----------------------------------------------------------------------------
|                                                                             |
|           W    W    AA    RRRRR   N    N  II  N    N   GGGG   !!!           |
|           W    W   A  A   R    R  NN   N  II  NN   N  G    G  !!!           |
|           W    W  A    A  R    R  N N  N  II  N N  N  G       !!!           |
|           W WW W  AAAAAA  RRRRR   N  N N  II  N  N N  G  GGG   !            |
|           WW  WW  A    A  R   R   N   NN  II  N   NN  G    G                |
|           W    W  A    A  R    R  N    N  II  N    N   GGGG   !!!           |
|                                                                             |
|     The real-space projection scheme for the treatment of the non-local     |
|     pseudopotentials has been switched on but on file POTCAR I have not     |
|     found any entries, signalling me that you have never performed a        |
|     real-space optimization of all non-local projectors! BE WARNED that     |
|     a calculation using the real-space projection scheme together with      |
|     non-local projectors which were not real-space optimized (according     |
|     to the plane-wave cutoff used in this calculation) might give more      |
|     or less inaccurate results. I hope you know what you are doing.         |
|                                                                             |
 -----------------------------------------------------------------------------

 LDA part: xc-table for (Slater+PW92), standard interpolation
 POSCAR found type information on POSCAR CrLaO H 
 POSCAR found :  4 types and      37 ions
 POSCAR, INCAR and KPOINTS ok, starting setup
 FFT: planning ... GRIDC
 FFT: planning ... GRID_SOFT
 FFT: planning ... GRID
 WAVECAR not read
 WARNING: random wavefunctions but no delay for mixing, default for NELMDL
 entering main loop
       N       E                     dE             d eps       ncg     rms          rms(c)
DAV:   1     0.467978561600E+04    0.46798E+04   -0.11120E+05   760   0.160E+03
DAV:   2     0.100305532852E+04   -0.36767E+04   -0.33851E+04   820   0.503E+02
DAV:   3    -0.150767783323E+03   -0.11538E+04   -0.11067E+04   980   0.245E+02
DAV:   4    -0.355564345855E+03   -0.20480E+03   -0.19712E+03  1300   0.100E+02
DAV:   5    -0.372794668585E+03   -0.17230E+02   -0.16342E+02  1380   0.294E+01    0.850E+01
DAV:   6    -0.592452739549E+03   -0.21966E+03   -0.50870E+03  1200   0.157E+02    0.307E+02
DAV:   7    -0.441599120295E+03    0.15085E+03   -0.13675E+03  1360   0.165E+02    0.148E+02
DAV:   8    -0.113935750760E+04   -0.69776E+03   -0.51350E+03  1380   0.156E+02    0.579E+02
DAV:   9    -0.110407693433E+04    0.35281E+02   -0.92999E+02  1340   0.830E+01    0.115E+03
DAV:  10    -0.700679305425E+03    0.40340E+03   -0.34604E+02  1380   0.405E+01    0.705E+02
DAV:  11    -0.609715029892E+03    0.90964E+02   -0.15021E+02  1360   0.148E+01    0.127E+03
DAV:  12    -0.452762641342E+03    0.15695E+03   -0.26989E+02  1240   0.194E+01    0.146E+03
DAV:  13    -0.482810208134E+03   -0.30048E+02   -0.68771E+01  1240   0.148E+01    0.149E+03
DAV:  14    -0.403414299712E+03    0.79396E+02   -0.21268E+02  1280   0.192E+01    0.149E+03
DAV:  15    -0.410360722119E+03   -0.69464E+01   -0.88332E+01  1320   0.101E+01    0.146E+03
DAV:  16    -0.426036052585E+03   -0.15675E+02   -0.31424E+01  1300   0.634E+00    0.129E+03
DAV:  17    -0.423395245739E+03    0.26408E+01   -0.36045E+01  1080   0.820E+00    0.133E+03
DAV:  18    -0.382459185375E+03    0.40936E+02   -0.83432E+01  1260   0.787E+00    0.747E+02
DAV:  19    -0.354553067398E+03    0.27906E+02   -0.18150E+02  1080   0.227E+01    0.817E+01
DAV:  20    -0.330216019966E+03    0.24337E+02   -0.41761E+02  1060   0.368E+01    0.751E+01
DAV:  21    -0.316713058909E+03    0.13503E+02   -0.31977E+02  1240   0.283E+01    0.579E+01
DAV:  22    -0.303097920699E+03    0.13615E+02   -0.70114E+01   960   0.238E+01    0.535E+01
DAV:  23    -0.298126910124E+03    0.49710E+01   -0.11521E+02  1200   0.191E+01    0.420E+01
DAV:  24    -0.294557725386E+03    0.35692E+01   -0.46361E+01  1080   0.154E+01    0.382E+01
DAV:  25    -0.294638374034E+03   -0.80649E-01   -0.36835E+01  1300   0.109E+01    0.389E+01
DAV:  26    -0.291292394580E+03    0.33460E+01   -0.75140E+00  1240   0.718E+00    0.249E+01
DAV:  27    -0.291978550139E+03   -0.68616E+00   -0.22588E+00  1340   0.354E+00    0.251E+01
DAV:  28    -0.291973003567E+03    0.55466E-02   -0.47915E-01  1240   0.206E+00    0.243E+01
DAV:  29    -0.291987464672E+03   -0.14461E-01   -0.50318E-02  1440   0.713E-01    0.243E+01
DAV:  30    -0.291980850878E+03    0.66138E-02   -0.15576E-02  1380   0.280E-01
 -----------------------------------------------------------------------------
|                                                                             |
|           W    W    AA    RRRRR   N    N  II  N    N   GGGG   !!!           |
|           W    W   A  A   R    R  NN   N  II  NN   N  G    G  !!!           |
|           W    W  A    A  R    R  N N  N  II  N N  N  G       !!!           |
|           W WW W  AAAAAA  RRRRR   N  N N  II  N  N N  G  GGG   !            |
|           WW  WW  A    A  R   R   N   NN  II  N   NN  G    G                |
|           W    W  A    A  R    R  N    N  II  N    N   GGGG   !!!           |
|                                                                             |
|     The electronic self-consistency was not achieved in the given           |
|     number of steps (NELM). The forces and other quantities evaluated       |
|     might not be reliable so examine the results carefully. If you find     |
|     spurious results, we suggest increasing NELM, if you were close to      |
|     convergence or switching to a different ALGO or adjusting the           |
|     density mixing parameters otherwise.                                    |
|                                                                             |
 -----------------------------------------------------------------------------

   1 F= -.29198085E+03 E0= -.29172588E+03  d E =-.291981E+03  mag=     6.9789
 curvature:   0.00 expect dE= 0.000E+00 dE for cont linesearch  0.000E+00
 trial: gam= 0.00000 g(F)=  0.382E+01 g(S)=  0.000E+00 ort = 0.000E+00 (trialstep = 0.100E+01)
 search vector abs. value=  0.382E+01
 bond charge predicted
       N       E                     dE             d eps       ncg     rms          rms(c)
DAV:   1    -0.291204149751E+03    0.78331E+00   -0.30335E+02   820   0.518E+01    0.256E+01
DAV:   2    -0.374298315122E+03   -0.83094E+02   -0.36579E+02  1260   0.497E+01    0.102E+02
DAV:   3    -0.313990244877E+03    0.60308E+02   -0.26884E+02  1100   0.471E+01    0.605E+01
DAV:   4    -0.323711439539E+03   -0.97212E+01   -0.38350E+02  1100   0.314E+01    0.700E+01
DAV:   5    -0.307588409996E+03    0.16123E+02   -0.35561E+02  1280   0.246E+01    0.505E+01
DAV:   6    -0.293303646330E+03    0.14285E+02   -0.10966E+02  1140   0.168E+01    0.302E+01
DAV:   7    -0.293413751508E+03   -0.11011E+00   -0.41778E+01  1180   0.101E+01    0.244E+01
DAV:   8    -0.292073911758E+03    0.13398E+01   -0.21827E+01  1090   0.880E+00    0.179E+01
DAV:   9    -0.292218247450E+03   -0.14434E+00   -0.48350E+00  1300   0.426E+00    0.160E+01
DAV:  10    -0.292582162293E+03   -0.36391E+00   -0.19949E+00   940   0.282E+00    0.168E+01
DAV:  11    -0.292334338097E+03    0.24782E+00   -0.43307E+00  1080   0.285E+00    0.166E+01
DAV:  12    -0.292375846015E+03   -0.41508E-01   -0.16306E-01  1320   0.902E-01    0.171E+01
DAV:  13    -0.292353926389E+03    0.21920E-01   -0.61131E-01   980   0.162E+00    0.161E+01
DAV:  14    -0.292314343742E+03    0.39583E-01   -0.21321E-01  1300   0.862E-01    0.148E+01
DAV:  15    -0.292337467806E+03   -0.23124E-01   -0.10074E-02  1080   0.306E-01    0.148E+01
DAV:  16    -0.292372253709E+03   -0.34786E-01   -0.20220E-01  1100   0.859E-01    0.153E+01
DAV:  17    -0.292365312677E+03    0.69410E-02   -0.49656E-02  1280   0.451E-01    0.152E+01
DAV:  18    -0.291926402402E+03    0.43891E+00   -0.73179E-01  1060   0.164E+00    0.139E+01
DAV:  19    -0.291961861752E+03   -0.35459E-01   -0.84527E-01  1070   0.164E+00    0.146E+01
DAV:  20    -0.291788585880E+03    0.17328E+00   -0.15560E+00  1040   0.224E+00    0.120E+01
DAV:  21    -0.291835079594E+03   -0.46494E-01   -0.12412E-01  1360   0.872E-01    0.120E+01
DAV:  22    -0.291758606477E+03    0.76473E-01   -0.30947E-02  1160   0.375E-01    0.119E+01
DAV:  23    -0.291718276045E+03    0.40330E-01   -0.17849E-01  1020   0.578E-01    0.121E+01
DAV:  24    -0.291957869094E+03   -0.23959E+00   -0.22728E+00   980   0.172E+00    0.105E+01
DAV:  25    -0.292116810205E+03   -0.15894E+00   -0.21926E-01  1260   0.119E+00    0.107E+01
DAV:  26    -0.292335748192E+03   -0.21894E+00   -0.64766E-01  1200   0.134E+00    0.112E+01
DAV:  27    -0.292474316645E+03   -0.13857E+00   -0.13720E-01  1260   0.771E-01    0.116E+01
DAV:  28    -0.292553178151E+03   -0.78862E-01   -0.21422E-01  1160   0.821E-01    0.117E+01
DAV:  29    -0.292614325058E+03   -0.61147E-01   -0.56359E-01  1140   0.118E+00    0.124E+01
DAV:  30    -0.292522254566E+03    0.92070E-01   -0.10293E+00  1100   0.114E+00
 -----------------------------------------------------------------------------
|                                                                             |
|           W    W    AA    RRRRR   N    N  II  N    N   GGGG   !!!           |
|           W    W   A  A   R    R  NN   N  II  NN   N  G    G  !!!           |
|           W    W  A    A  R    R  N N  N  II  N N  N  G       !!!           |
|           W WW W  AAAAAA  RRRRR   N  N N  II  N  N N  G  GGG   !            |
|           WW  WW  A    A  R   R   N   NN  II  N   NN  G    G                |
|           W    W  A    A  R    R  N    N  II  N    N   GGGG   !!!           |
|                                                                             |
|     The electronic self-consistency was not achieved in the given           |
|     number of steps (NELM). The forces and other quantities evaluated       |
|     might not be reliable so examine the results carefully. If you find     |
|     spurious results, we suggest increasing NELM, if you were close to      |
|     convergence or switching to a different ALGO or adjusting the           |
|     density mixing parameters otherwise.                                    |
|                                                                             |
 -----------------------------------------------------------------------------

   2 F= -.29252225E+03 E0= -.29233459E+03  d E =-.541404E+00  mag=     8.3708
 trial-energy change:   -0.541404  1 .order   -0.355404   -3.821171    3.110362
 step:   0.5513(harm=  0.5513)  dis= 0.04503  next Energy=  -293.034106 (dE=-0.105E+01)
 bond charge predicted
       N       E                     dE             d eps       ncg     rms          rms(c)
DAV:   1    -0.292850497183E+03   -0.23617E+00   -0.63710E+01   820   0.233E+01    0.128E+01
DAV:   2    -0.421531425356E+03   -0.12868E+03   -0.38078E+02  1320   0.453E+01    0.112E+02
DAV:   3    -0.291089220429E+03    0.13044E+03   -0.63458E+02  1260   0.452E+01    0.414E+01
DAV:   4    -0.293129084238E+03   -0.20399E+01   -0.11212E+02  1240   0.190E+01    0.175E+01
DAV:   5    -0.296631508357E+03   -0.35024E+01   -0.27769E+01  1180   0.905E+00    0.230E+01
DAV:   6    -0.295604299204E+03    0.10272E+01   -0.20856E+01  1200   0.667E+00    0.170E+01
DAV:   7    -0.294262947072E+03    0.13414E+01   -0.42838E+00  1240   0.418E+00    0.105E+01
DAV:   8    -0.294365559625E+03   -0.10261E+00   -0.72823E-01  1340   0.202E+00    0.936E+00
DAV:   9    -0.294451803854E+03   -0.86244E-01   -0.99607E-02  1180   0.103E+00    0.912E+00
DAV:  10    -0.294456899198E+03   -0.50953E-02   -0.61753E-02  1280   0.621E-01    0.958E+00
DAV:  11    -0.294450227760E+03    0.66714E-02   -0.45215E-03  1200   0.205E-01    0.955E+00
DAV:  12    -0.294424368570E+03    0.25859E-01   -0.44050E-02  1080   0.468E-01    0.949E+00
DAV:  13    -0.294392978897E+03    0.31390E-01   -0.35307E-01  1160   0.107E+00    0.834E+00
DAV:  14    -0.294523023376E+03   -0.13004E+00   -0.47292E-01  1080   0.157E+00    0.784E+00
DAV:  15    -0.294566000650E+03   -0.42977E-01   -0.87562E-01  1180   0.144E+00    0.706E+00
DAV:  16    -0.294552571320E+03    0.13429E-01   -0.25765E-02  1200   0.464E-01    0.710E+00
DAV:  17    -0.294570426867E+03   -0.17856E-01   -0.19311E-02  1160   0.349E-01    0.725E+00
DAV:  18    -0.294495265814E+03    0.75161E-01   -0.16709E-01   960   0.870E-01    0.714E+00
DAV:  19    -0.294478583343E+03    0.16682E-01   -0.27509E-02  1340   0.499E-01    0.728E+00
DAV:  20    -0.294398984299E+03    0.79599E-01   -0.13747E-01  1020   0.677E-01    0.696E+00
DAV:  21    -0.294398191562E+03    0.79274E-03   -0.28598E-01  1060   0.112E+00    0.708E+00
DAV:  22    -0.294301993827E+03    0.96198E-01   -0.24623E-01  1160   0.102E+00    0.675E+00
DAV:  23    -0.294229770030E+03    0.72224E-01   -0.44237E-01  1180   0.122E+00    0.676E+00
DAV:  24    -0.294234601509E+03   -0.48315E-02   -0.24598E-02  1240   0.482E-01    0.672E+00
DAV:  25    -0.294230332447E+03    0.42691E-02   -0.26678E-03  1280   0.145E-01    0.671E+00
DAV:  26    -0.294234400111E+03   -0.40677E-02   -0.83283E-04   920   0.631E-02    0.672E+00
DAV:  27    -0.294277722619E+03   -0.43323E-01   -0.26989E-02  1200   0.294E-01    0.705E+00
DAV:  28    -0.294303499556E+03   -0.25777E-01   -0.96657E-03   960   0.189E-01    0.712E+00
DAV:  29    -0.294345091348E+03   -0.41592E-01   -0.47968E-02  1240   0.315E-01    0.734E+00
DAV:  30    -0.294305966148E+03    0.39125E-01   -0.27683E-01  1090   0.715E-01
 -----------------------------------------------------------------------------
|                                                                             |
|           W    W    AA    RRRRR   N    N  II  N    N   GGGG   !!!           |
|           W    W   A  A   R    R  NN   N  II  NN   N  G    G  !!!           |
|           W    W  A    A  R    R  N N  N  II  N N  N  G       !!!           |
|           W WW W  AAAAAA  RRRRR   N  N N  II  N  N N  G  GGG   !            |
|           WW  WW  A    A  R   R   N   NN  II  N   NN  G    G                |
|           W    W  A    A  R    R  N    N  II  N    N   GGGG   !!!           |
|                                                                             |
|     The electronic self-consistency was not achieved in the given           |
|     number of steps (NELM). The forces and other quantities evaluated       |
|     might not be reliable so examine the results carefully. If you find     |
|     spurious results, we suggest increasing NELM, if you were close to      |
|     convergence or switching to a different ALGO or adjusting the           |
|     density mixing parameters otherwise.                                    |
|                                                                             |
 -----------------------------------------------------------------------------

   3 F= -.29430597E+03 E0= -.29413582E+03  d E =-.232512E+01  mag=     9.2784
 curvature:  -0.28 expect dE=-0.846E+00 dE for cont linesearch -0.410E-01
 ZBRENT: interpolating
 opt :   0.6388  next Energy=  -294.338975 (dE=-0.236E+01)
 bond charge predicted
       N       E                     dE             d eps       ncg     rms          rms(c)
DAV:   1    -0.294340287683E+03    0.48037E-02   -0.23418E+00   820   0.458E+00    0.775E+00
DAV:   2    -0.298486783636E+03   -0.41465E+01   -0.46155E+01  1330   0.982E+00    0.223E+01
DAV:   3    -0.301409384424E+03   -0.29226E+01   -0.61948E+01  1140   0.159E+01    0.420E+01
DAV:   4    -0.294889032180E+03    0.65204E+01   -0.44444E+01  1120   0.932E+00    0.133E+01
DAV:   5    -0.294937860636E+03   -0.48828E-01   -0.93234E-01  1340   0.284E+00    0.106E+01
DAV:   6    -0.295006744378E+03   -0.68884E-01   -0.13287E-01  1260   0.104E+00    0.106E+01
DAV:   7    -0.295099024508E+03   -0.92280E-01   -0.23132E-01  1180   0.144E+00    0.894E+00
DAV:   8    -0.295157645893E+03   -0.58621E-01   -0.68024E-01  1020   0.252E+00    0.715E+00
DAV:   9    -0.295348790645E+03   -0.19114E+00   -0.69024E-01  1120   0.273E+00    0.593E+00
DAV:  10    -0.295374229421E+03   -0.25439E-01   -0.12975E+00  1120   0.298E+00    0.543E+00
DAV:  11    -0.295383338471E+03   -0.91091E-02   -0.67744E-01  1120   0.199E+00    0.385E+00
DAV:  12    -0.295435582614E+03   -0.52244E-01   -0.35490E-01  1180   0.157E+00    0.351E+00
DAV:  13    -0.295472229014E+03   -0.36646E-01   -0.14154E-01  1200   0.100E+00    0.196E+00
DAV:  14    -0.295525847189E+03   -0.53618E-01   -0.96165E-02  1260   0.859E-01    0.169E+00
DAV:  15    -0.295568360575E+03   -0.42513E-01   -0.13424E-01  1220   0.934E-01    0.129E+00
DAV:  16    -0.295584635524E+03   -0.16275E-01   -0.59788E-02  1180   0.549E-01    0.840E-01
DAV:  17    -0.295612166994E+03   -0.27531E-01   -0.22786E-02  1360   0.424E-01    0.987E-01
DAV:  18    -0.295632448497E+03   -0.20282E-01   -0.10239E-02  1060   0.319E-01    0.801E-01
DAV:  19    -0.295665724670E+03   -0.33276E-01   -0.22826E-02  1140   0.262E-01    0.843E-01
DAV:  20    -0.295674201464E+03   -0.84768E-02   -0.20997E-02  1260   0.306E-01    0.491E-01
DAV:  21    -0.295697379489E+03   -0.23178E-01   -0.11313E-02  1080   0.200E-01    0.462E-01
DAV:  22    -0.295721468920E+03   -0.24089E-01   -0.12121E-02  1340   0.233E-01    0.792E-01
DAV:  23    -0.295726322074E+03   -0.48532E-02   -0.81363E-03  1100   0.222E-01    0.284E-01
DAV:  24    -0.295748644859E+03   -0.22323E-01   -0.85838E-03  1260   0.209E-01    0.602E-01
DAV:  25    -0.295748088508E+03    0.55635E-03   -0.87036E-04   940   0.844E-02    0.600E-01
DAV:  26    -0.295747340462E+03    0.74805E-03   -0.71664E-05   640   0.374E-02    0.568E-01
DAV:  27    -0.295750680081E+03   -0.33396E-02   -0.64570E-04   580   0.712E-02    0.776E-01
DAV:  28    -0.295751226660E+03   -0.54658E-03   -0.25785E-04   620   0.561E-02    0.684E-01
DAV:  29    -0.295760034679E+03   -0.88080E-02   -0.30287E-03  1040   0.728E-02    0.709E-01
DAV:  30    -0.295756929068E+03    0.31056E-02   -0.82964E-04   820   0.740E-02
 -----------------------------------------------------------------------------
|                                                                             |
|           W    W    AA    RRRRR   N    N  II  N    N   GGGG   !!!           |
|           W    W   A  A   R    R  NN   N  II  NN   N  G    G  !!!           |
|           W    W  A    A  R    R  N N  N  II  N N  N  G       !!!           |
|           W WW W  AAAAAA  RRRRR   N  N N  II  N  N N  G  GGG   !            |
|           WW  WW  A    A  R   R   N   NN  II  N   NN  G    G                |
|           W    W  A    A  R    R  N    N  II  N    N   GGGG   !!!           |
|                                                                             |
|     The electronic self-consistency was not achieved in the given           |
|     number of steps (NELM). The forces and other quantities evaluated       |
|     might not be reliable so examine the results carefully. If you find     |
|     spurious results, we suggest increasing NELM, if you were close to      |
|     convergence or switching to a different ALGO or adjusting the           |
|     density mixing parameters otherwise.                                    |
|                                                                             |
 -----------------------------------------------------------------------------

   4 F= -.29575693E+03 E0= -.29561899E+03  d E =-.377608E+01  mag=     9.3449
 curvature:  -0.22 expect dE=-0.934E+00 dE for cont linesearch -0.104E-05
 trial: gam= 1.10077 g(F)=  0.421E+01 g(S)=  0.000E+00 ort = 0.423E-02 (trialstep = 0.401E+00)
 search vector abs. value=  0.885E+01
 bond charge predicted
       N       E                     dE             d eps       ncg     rms          rms(c)
DAV:   1    -0.295438473273E+03    0.32156E+00   -0.11334E+02   810   0.294E+01    0.420E+00
DAV:   2    -0.297279690853E+03   -0.18412E+01   -0.19080E+01  1260   0.107E+01    0.128E+01
DAV:   3    -0.297076203534E+03    0.20349E+00   -0.14067E+01  1280   0.814E+00    0.193E+01
DAV:   4    -0.296103859634E+03    0.97234E+00   -0.11113E+01  1060   0.441E+00    0.492E+00
DAV:   5    -0.296074611406E+03    0.29248E-01   -0.53527E-01  1240   0.183E+00    0.467E+00
DAV:   6    -0.295985152347E+03    0.89459E-01   -0.28162E-01  1220   0.132E+00    0.359E+00
DAV:   7    -0.295974856412E+03    0.10296E-01   -0.11385E-01  1100   0.928E-01    0.456E+00
DAV:   8    -0.295953355626E+03    0.21501E-01   -0.13288E-02  1260   0.318E-01    0.455E+00
DAV:   9    -0.295949311954E+03    0.40437E-02   -0.13159E-03  1220   0.105E-01    0.455E+00
DAV:  10    -0.295947760581E+03    0.15514E-02   -0.70102E-04   940   0.782E-02    0.458E+00
DAV:  11    -0.295938083361E+03    0.96772E-02   -0.26122E-03  1160   0.145E-01    0.448E+00
DAV:  12    -0.295940052559E+03   -0.19692E-02   -0.90212E-04   900   0.118E-01    0.442E+00
DAV:  13    -0.296002786083E+03   -0.62734E-01   -0.29828E-01  1060   0.102E+00    0.573E+00
DAV:  14    -0.296070475069E+03   -0.67689E-01   -0.45049E-01  1060   0.147E+00    0.693E+00
DAV:  15    -0.296113875417E+03   -0.43400E-01   -0.18546E-01  1220   0.104E+00    0.780E+00
DAV:  16    -0.296164577791E+03   -0.50702E-01   -0.13716E-01  1340   0.988E-01    0.851E+00
DAV:  17    -0.296174684617E+03   -0.10107E-01   -0.13938E-01  1320   0.884E-01    0.745E+00
DAV:  18    -0.296188488682E+03   -0.13804E-01   -0.46524E-02  1220   0.596E-01    0.656E+00
DAV:  19    -0.296201042175E+03   -0.12553E-01   -0.30498E-02  1280   0.540E-01    0.575E+00
DAV:  20    -0.296216385297E+03   -0.15343E-01   -0.27445E-02  1100   0.432E-01    0.493E+00
DAV:  21    -0.296223925067E+03   -0.75398E-02   -0.19089E-02  1340   0.372E-01    0.421E+00
DAV:  22    -0.296230964719E+03   -0.70397E-02   -0.93931E-03  1200   0.246E-01    0.360E+00
DAV:  23    -0.296238524708E+03   -0.75600E-02   -0.62949E-03  1260   0.186E-01    0.319E+00
DAV:  24    -0.296240758073E+03   -0.22334E-02   -0.68584E-03  1180   0.170E-01    0.271E+00
DAV:  25    -0.296239697877E+03    0.10602E-02   -0.53090E-03  1340   0.152E-01    0.241E+00
DAV:  26    -0.296239503300E+03    0.19458E-03   -0.79984E-04   980   0.597E-02    0.239E+00
DAV:  27    -0.296239477283E+03    0.26017E-04   -0.81998E-05   680   0.345E-02
   5 F= -.29623948E+03 E0= -.29611186E+03  d E =-.482548E+00  mag=     9.3240
 trial-energy change:   -0.482548  1 .order   -0.184924   -1.688521    1.318674
 step:   0.2759(harm=  0.2249)  dis= 0.02904  next Energy=  -296.435701 (dE=-0.679E+00)
