<?xml version="1.0" encoding="ISO-8859-1"?>
<modeling>
 <generator>
  <i name="program" type="string">vasp </i>
  <i name="version" type="string">6.4.3  </i>
  <i name="subversion" type="string">19Mar24 (build Jul 09 2024 15:45:28) complex                          parallel </i>
  <i name="platform" type="string">LinuxIFC </i>
  <i name="date" type="string">2024 10 29 </i>
  <i name="time" type="string">12:11:57 </i>
 </generator>
 <incar>
  <i type="string" name="PREC">Normal</i>
  <i type="string" name="ALGO">Normal</i>
  <i type="int" name="NSIM">    10</i>
  <i type="int" name="ISPIN">     2</i>
  <i type="int" name="NELM">    30</i>
  <i type="int" name="NELMIN">     5</i>
  <i type="int" name="IBRION">     2</i>
  <i name="EDIFF">      0.00010000</i>
  <i name="EDIFFG">     -0.10000000</i>
  <i type="int" name="NSW">     5</i>
  <i name="ENCUT">    400.00000000</i>
  <i name="POTIM">      0.15000000</i>
  <v name="MAGMOM">      1.00000000      1.00000000      1.00000000      1.00000000      1.00000000      1.00000000      1.00000000      1.00000000      0.00000000      0.00000000      0.00000000      0.00000000      0.00000000      0.00000000      0.00000000      0.00000000      0.00000000      0.00000000      0.00000000      0.00000000
      0.00000000      0.00000000      0.00000000      0.00000000      0.00000000      0.00000000      0.00000000      0.00000000      0.00000000      0.00000000      0.00000000      0.00000000      0.00000000      0.00000000      0.00000000      0.00000000      0.00000000</v>
  <i type="logical" name="LREAL"> T  </i>
  <i type="int" name="ISMEAR">     0</i>
  <i type="logical" name="KGAMMA"> T  </i>
  <i type="int" name="LMAXMIX">     6</i>
  <i type="logical" name="LWAVE"> F  </i>
  <i type="logical" name="LCHARG"> F  </i>
  <i type="int" name="LORBIT">    10</i>
  <i type="logical" name="LASPH"> T  </i>
  <i type="string" name="GGA">PE</i>
  <i type="logical" name="LDIPOL"> T  </i>
  <i type="int" name="IDIPOL">     3</i>
 </incar>
 <primitive_cell>
  <structure name="primitive_cell" >
   <crystal>
    <varray name="basis" >
     <v>       5.53670000       0.00000000       0.00000000 </v>
     <v>       0.00000000       5.74730000       0.00000000 </v>
     <v>       0.00000000       0.00000000      29.09039264 </v>
    </varray>
    <i name="volume">    925.68759245 </i>
    <varray name="rec_basis" >
     <v>       0.18061300       0.00000000       0.00000000 </v>
     <v>       0.00000000       0.17399475       0.00000000 </v>
     <v>       0.00000000       0.00000000       0.03437561 </v>
    </varray>
   </crystal>
   <varray name="positions" >
    <v>       0.00000000       0.50000000       0.00343756 </v>
    <v>       0.50000000       0.00000000       0.00343756 </v>
    <v>       0.50000000       0.00000000       0.13566163 </v>
    <v>       0.00000000       0.50000000       0.13566163 </v>
    <v>       0.99986929       0.49938438       0.26937126 </v>
    <v>       0.50013071       0.99938438       0.26937126 </v>
    <v>       0.48939587       0.00315503       0.40006453 </v>
    <v>       0.01060413       0.50315503       0.40006453 </v>
    <v>       0.50780000       0.54900000       0.06954959 </v>
    <v>       0.99220000       0.04900000       0.06954959 </v>
    <v>       0.49220000       0.45100000       0.20177366 </v>
    <v>       0.00780000       0.95100000       0.20177366 </v>
    <v>       0.50957389       0.54416646       0.33581737 </v>
    <v>       0.99042611       0.04416646       0.33581737 </v>
    <v>       0.77440000       0.80660000       0.01359237 </v>
    <v>       0.72560000       0.30660000       0.01359237 </v>
    <v>       0.42550000       0.98740000       0.06954959 </v>
    <v>       0.07450000       0.48740000       0.06954959 </v>
    <v>       0.72560000       0.30660000       0.12550682 </v>
    <v>       0.77440000       0.80660000       0.12550682 </v>
    <v>       0.22560000       0.19340000       0.14581644 </v>
    <v>       0.27440000       0.69340000       0.14581644 </v>
    <v>       0.57450000       0.01260000       0.20177366 </v>
    <v>       0.92550000       0.51260000       0.20177366 </v>
    <v>       0.28870533       0.69634117       0.25614362 </v>
    <v>       0.21129467       0.19634117       0.25614362 </v>
    <v>       0.79204805       0.80781865       0.27752619 </v>
    <v>       0.70795195       0.30781865       0.27752619 </v>
    <v>       0.42984338       0.00357119       0.33324504 </v>
    <v>       0.07015662       0.50357119       0.33324504 </v>
    <v>       0.71908670       0.30128723       0.38774270 </v>
    <v>       0.78091330       0.80128723       0.38774270 </v>
    <v>       0.21339458       0.19228727       0.40834875 </v>
    <v>       0.28660542       0.69228727       0.40834875 </v>
    <v>       0.00000000       0.62315878       0.47022484 </v>
    <v>       0.00000000       0.38311950       0.48748571 </v>
    <v>       0.00000000       0.40195910       0.52444123 </v>
   </varray>
  </structure>
  <varray name="primitive_index" >
   <v type="int" >        1 </v>
   <v type="int" >        2 </v>
   <v type="int" >        3 </v>
   <v type="int" >        4 </v>
   <v type="int" >        5 </v>
   <v type="int" >        6 </v>
   <v type="int" >        7 </v>
   <v type="int" >        8 </v>
   <v type="int" >        9 </v>
   <v type="int" >       10 </v>
   <v type="int" >       11 </v>
   <v type="int" >       12 </v>
   <v type="int" >       13 </v>
   <v type="int" >       14 </v>
   <v type="int" >       15 </v>
   <v type="int" >       16 </v>
   <v type="int" >       17 </v>
   <v type="int" >       18 </v>
   <v type="int" >       19 </v>
   <v type="int" >       20 </v>
   <v type="int" >       21 </v>
   <v type="int" >       22 </v>
   <v type="int" >       23 </v>
   <v type="int" >       24 </v>
   <v type="int" >       25 </v>
   <v type="int" >       26 </v>
   <v type="int" >       27 </v>
   <v type="int" >       28 </v>
   <v type="int" >       29 </v>
   <v type="int" >       30 </v>
   <v type="int" >       31 </v>
   <v type="int" >       32 </v>
   <v type="int" >       33 </v>
   <v type="int" >       34 </v>
   <v type="int" >       35 </v>
   <v type="int" >       36 </v>
   <v type="int" >       37 </v>
  </varray>
 </primitive_cell>
 <kpoints>
  <generation param="Monkhorst-Pack">
   <v type="int" name="divisions">       1        1        1 </v>
   <v name="usershift">      0.00000000       0.00000000       0.00000000 </v>
   <v name="genvec1">      1.00000000       0.00000000       0.00000000 </v>
   <v name="genvec2">      0.00000000       1.00000000       0.00000000 </v>
   <v name="genvec3">      0.00000000       0.00000000       1.00000000 </v>
   <v name="shift">      0.00000000       0.00000000       0.00000000 </v>
  </generation>
  <varray name="kpointlist" >
   <v>       0.00000000       0.00000000       0.00000000 </v>
  </varray>
  <varray name="weights" >
   <v>       1.00000000 </v>
  </varray>
 </kpoints>
 <parameters>
  <separator name="general" >
   <i type="string" name="SYSTEM">unknown system</i>
   <i type="logical" name="LCOMPAT"> F  </i>
  </separator>
  <separator name="electronic" >
   <i type="string" name="PREC">normal</i>
   <i name="ENMAX">    400.00000000</i>
   <i name="ENAUG">    605.39200000</i>
   <i name="EDIFF">      0.00010000</i>
   <i type="int" name="IALGO">    38</i>
   <i type="int" name="IWAVPR">    11</i>
   <i type="int" name="NBANDS">   190</i>
   <i type="int" name="NBANDSLOW">    -1</i>
   <i type="int" name="NBANDSHIGH">    -1</i>
   <i name="NELECT">    295.00000000</i>
   <i type="int" name="TURBO">     0</i>
   <i type="int" name="IRESTART">     0</i>
   <i type="int" name="NREBOOT">     0</i>
   <i type="int" name="NMIN">     0</i>
   <i name="EREF">      0.00000000</i>
   <separator name="electronic smearing" >
    <i type="int" name="ISMEAR">     0</i>
    <i name="SIGMA">      0.20000000</i>
    <i name="KSPACING">      0.50000000</i>
    <i type="logical" name="KGAMMA"> T  </i>
    <i type="logical" name="KBLOWUP"> T  </i>
   </separator>
   <separator name="electronic projectors" >
    <i type="logical" name="LREAL"> T  </i>
    <v name="ROPT">      0.00000000      0.00000000      0.00000000      0.00000000</v>
    <i type="int" name="LMAXPAW">  -100</i>
    <i type="int" name="LMAXMIX">     6</i>
    <i type="logical" name="NLSPLINE"> F  </i>
   </separator>
   <separator name="electronic startup" >
    <i type="int" name="ISTART">     0</i>
    <i type="int" name="ICHARG">     2</i>
    <i type="int" name="INIWAV">     1</i>
   </separator>
   <separator name="electronic spin" >
    <i type="int" name="ISPIN">     2</i>
    <i type="logical" name="LNONCOLLINEAR"> F  </i>
    <v name="MAGMOM">      1.00000000      1.00000000      1.00000000      1.00000000      1.00000000      1.00000000      1.00000000      1.00000000      0.00000000      0.00000000      0.00000000      0.00000000      0.00000000      0.00000000      0.00000000      0.00000000      0.00000000      0.00000000      0.00000000      0.00000000
      0.00000000      0.00000000      0.00000000      0.00000000      0.00000000      0.00000000      0.00000000      0.00000000      0.00000000      0.00000000      0.00000000      0.00000000      0.00000000      0.00000000      0.00000000      0.00000000      0.00000000</v>
    <i name="NUPDOWN">     -1.00000000</i>
    <i type="logical" name="LSORBIT"> F  </i>
    <v name="SAXIS">      0.00000000      0.00000000      1.00000000</v>
    <i type="logical" name="LSPIRAL"> F  </i>
    <v name="QSPIRAL">      0.00000000      0.00000000      0.00000000</v>
    <i type="logical" name="LZEROZ"> F  </i>
   </separator>
   <separator name="electronic exchange-correlation" >
    <i type="logical" name="LASPH"> T  </i>
   </separator>
   <separator name="electronic convergence" >
    <i type="int" name="NELM">    30</i>
    <i type="int" name="NELMDL">     0</i>
    <i type="int" name="NELMIN">     5</i>
    <i name="ENINI">    400.00000000</i>
    <separator name="electronic convergence detail" >
     <i type="logical" name="LDIAG"> T  </i>
     <i type="logical" name="LSUBROT"> F  </i>
     <i name="WEIMIN">      0.00100000</i>
     <i name="EBREAK">      0.00000013</i>
     <i name="DEPER">      0.30000000</i>
     <i type="int" name="NRMM">     4</i>
     <i name="TIME">      0.40000000</i>
    </separator>
   </separator>
   <separator name="electronic mixer" >
    <i name="AMIX">      0.40000000</i>
    <i name="BMIX">      1.00000000</i>
    <i name="AMIN">      0.10000000</i>
    <i name="AMIX_MAG">      1.60000000</i>
    <i name="BMIX_MAG">      1.00000000</i>
    <separator name="electronic mixer details" >
     <i type="int" name="IMIX">     4</i>
     <i type="logical" name="MIXFIRST"> F  </i>
     <i type="int" name="MAXMIX">   -45</i>
     <i name="WC">    100.00000000</i>
     <i type="int" name="INIMIX">     1</i>
     <i type="int" name="MIXPRE">     1</i>
     <i type="int" name="MREMOVE">     5</i>
    </separator>
   </separator>
   <separator name="electronic dipolcorrection" >
    <i type="logical" name="LDIPOL"> T  </i>
    <i type="logical" name="LMONO"> F  </i>
    <i type="int" name="IDIPOL">     3</i>
    <i name="EPSILON">      1.00000000</i>
    <v name="DIPOL">   -100.00000000   -100.00000000   -100.00000000</v>
    <i name="EFIELD">      0.00000000</i>
    <i type="logical" name="LVACPOTAV"> F  </i>
   </separator>
  </separator>
  <separator name="grids" >
   <i type="int" name="NGX">    28</i>
   <i type="int" name="NGY">    28</i>
   <i type="int" name="NGZ">   144</i>
   <i type="int" name="NGXF">    56</i>
   <i type="int" name="NGYF">    56</i>
   <i type="int" name="NGZF">   288</i>
   <i type="logical" name="ADDGRID"> F  </i>
  </separator>
  <separator name="ionic" >
   <i type="int" name="NSW">     5</i>
   <i type="int" name="IBRION">     2</i>
   <i type="int" name="MDALGO">     0</i>
   <i type="int" name="ISIF">     2</i>
   <i name="PSTRESS">      0.00000000</i>
   <i name="EDIFFG">     -0.10000000</i>
   <i type="int" name="NFREE">     1</i>
   <i name="POTIM">      0.15000000</i>
   <i name="SMASS">     -3.00000000</i>
   <i name="SCALEE">      1.00000000</i>
  </separator>
  <separator name="ionic md" >
   <i name="TEBEG">      0.00010000</i>
   <i name="TEEND">      0.00010000</i>
   <i type="int" name="NBLOCK">     1</i>
   <i type="int" name="KBLOCK">     5</i>
   <i type="int" name="NPACO">   256</i>
   <i name="APACO">     10.00000000</i>
  </separator>
  <separator name="symmetry" >
   <i type="int" name="ISYM">     2</i>
   <i name="SYMPREC">      0.00001000</i>
  </separator>
  <separator name="dos" >
   <i type="int" name="LORBIT">    10</i>
   <v name="RWIGS">     -1.00000000     -1.00000000     -1.00000000     -1.00000000</v>
   <i type="int" name="NEDOS">   301</i>
   <i name="EMIN">     10.00000000</i>
   <i name="EMAX">    -10.00000000</i>
   <i name="EFERMI">      0.00000000</i>
  </separator>
  <separator name="writing" >
   <i type="int" name="NWRITE">     2</i>
   <i type="logical" name="LWAVE"> F  </i>
   <i type="logical" name="LDOWNSAMPLE"> F  </i>
   <i type="logical" name="LCHARG"> F  </i>
   <i type="logical" name="LPARD"> F  </i>
   <i type="logical" name="LVTOT"> F  </i>
   <i type="logical" name="LVHAR"> F  </i>
   <i type="logical" name="LELF"> F  </i>
   <i type="logical" name="LOPTICS"> F  </i>
   <v name="STM">      0.00000000      0.00000000      0.00000000      0.00000000      0.00000000      0.00000000      0.00000000</v>
  </separator>
  <separator name="performance" >
   <i type="int" name="NPAR">    10</i>
   <i type="int" name="NSIM">    10</i>
   <i type="int" name="NBLK">    -1</i>
   <i type="logical" name="LPLANE"> T  </i>
   <i type="logical" name="LSCALAPACK"> T  </i>
   <i type="logical" name="LSCAAWARE"> F  </i>
   <i type="logical" name="LSCALU"> F  </i>
   <i type="logical" name="LASYNC"> F  </i>
   <i type="logical" name="LORBITALREAL"> F  </i>
  </separator>
  <separator name="miscellaneous" >
   <i type="int" name="IDIOT">     3</i>
   <i type="int" name="PHON_NSTRUCT">    -1</i>
   <i type="logical" name="LMUSIC"> F  </i>
   <v name="POMASS">     51.99600000    138.90000000     16.00000000      1.00000000</v>
   <v name="DARWINR">      0.00000000      0.00000000      0.00000000      0.00000000</v>
   <v name="DARWINV">      1.00000000      1.00000000      1.00000000      1.00000000</v>
   <i type="logical" name="LCORR"> T  </i>
  </separator>
  <i type="logical" name="GGA_COMPAT"> T  </i>
  <i type="logical" name="LBERRY"> F  </i>
  <i type="int" name="ICORELEVEL">     0</i>
  <i type="logical" name="LDAU"> F  </i>
  <i type="int" name="I_CONSTRAINED_M">     0</i>
  <separator name="electronic exchange-correlation" >
   <i type="string" name="GGA    ">PE</i>
   <i type="string" name="XC_C">1</i>
   <i type="int" name="VOSKOWN">     0</i>
   <i type="logical" name="LHFCALC"> F  </i>
   <i type="string" name="PRECFOCK"></i>
   <i type="logical" name="LSYMGRAD"> F  </i>
   <i type="logical" name="LHFONE"> F  </i>
   <i type="logical" name="LRHFCALC"> F  </i>
   <i type="logical" name="LTHOMAS"> F  </i>
   <i type="logical" name="LMODELHF"> F  </i>
   <i type="logical" name="LFOCKACE"> F  </i>
   <i name="ENCUT4O">     -1.00000000</i>
   <i type="int" name="EXXOEP">     0</i>
   <i type="int" name="FOURORBIT">     0</i>
   <i name="AEXX">      0.00000000</i>
   <i name="HFALPHA">      0.00000000</i>
   <i name="MCALPHA">      0.00000000</i>
   <i name="ALDAX">      1.00000000</i>
   <i name="AGGAX">      1.00000000</i>
   <i name="AMGGAX">      1.00000000</i>
   <i name="ALDAC">      1.00000000</i>
   <i name="AGGAC">      1.00000000</i>
   <i name="AMGGAC">      1.00000000</i>
   <i type="int" name="NKREDX">     1</i>
   <i type="int" name="NKREDY">     1</i>
   <i type="int" name="NKREDZ">     1</i>
   <i type="logical" name="SHIFTRED"> F  </i>
   <i type="logical" name="ODDONLY"> F  </i>
   <i type="logical" name="EVENONLY"> F  </i>
   <i type="int" name="LMAXFOCK">     0</i>
   <i type="int" name="NMAXFOCKAE">     0</i>
   <i type="logical" name="LFOCKAEDFT"> F  </i>
   <i name="HFSCREEN">      0.00000000</i>
   <i name="HFSCREENC">      0.00000000</i>
   <i type="int" name="NBANDSGWLOW">     0</i>
  </separator>
  <separator name="vdW DFT" >
   <i type="logical" name="LUSE_VDW"> F  </i>
   <i type="int" name="IVDW_NL">    -1</i>
   <i type="logical" name="LSPIN_VDW"> F  </i>
   <i name="ZAB_VDW">     -0.84910000</i>
   <i name="GAMMA_VDW">      1.39626340</i>
   <i name="ALPHA_VDW">      0.00000000</i>
   <i name="PARAM1">      0.12340000</i>
   <i name="PARAM2">      1.00000000</i>
   <i name="BPARAM">      6.30000000</i>
   <i name="CPARAM">      0.00930000</i>
  </separator>
  <separator name="model GW" >
   <i type="int" name="MODEL_GW">     0</i>
   <i name="MODEL_EPS0">     15.01115015</i>
   <i name="MODEL_ALPHA">      1.00000000</i>
  </separator>
  <separator name="linear response parameters" >
   <i type="logical" name="LEPSILON"> F  </i>
   <i type="logical" name="LRPA"> F  </i>
   <i type="logical" name="LNABLA"> F  </i>
   <i type="logical" name="LVEL"> F  </i>
   <i name="CSHIFT">      0.10000000</i>
   <i name="OMEGAMAX">     -1.00000000</i>
   <i name="DEG_THRESHOLD">      0.00200000</i>
   <i name="RTIME">     -0.10000000</i>
   <i name="WPLASMAI">      0.00000000</i>
   <v name="DFIELD">      0.00000000      0.00000000      0.00000000</v>
   <v name="WPLASMA">      0.00000000      0.00000000      0.00000000      0.00000000      0.00000000      0.00000000      0.00000000      0.00000000      0.00000000</v>
  </separator>
  <separator name="orbital magnetization" >
   <i type="logical" name="NUCIND"> F  </i>
   <v name="MAGPOS">      0.00000000      0.00000000      0.00000000</v>
   <i type="logical" name="LNICSALL"> T  </i>
   <i type="logical" name="ORBITALMAG"> F  </i>
   <i type="logical" name="LMAGBLOCH"> F  </i>
   <i type="logical" name="LCHIMAG"> F  </i>
   <i type="logical" name="LGAUGE"> T  </i>
   <i type="int" name="MAGATOM">     0</i>
   <v name="MAGDIPOL">      0.00000000      0.00000000      0.00000000</v>
   <v name="AVECCONST">      0.00000000      0.00000000      0.00000000</v>
  </separator>
  <separator name="response functions" >
   <i type="logical" name="LALL_IN_ONE"> F  </i>
   <i type="int" name="IALL_IN_ONE">    -1</i>
   <i type="int" name="NBANDS_WAVE">    -1</i>
   <i type="logical" name="LFINITE_TEMPERATURE"> F  </i>
   <i type="logical" name="LADDER"> F  </i>
   <i type="logical" name="LRPAFORCE"> F  </i>
   <i type="logical" name="LFXC"> F  </i>
   <i type="logical" name="LHARTREE"> T  </i>
   <i type="int" name="IBSE">     0</i>
   <v type="int" name="KPOINT">    -1     0     0     0</v>
   <i type="logical" name="LTCTC"> F  </i>
   <i type="logical" name="LTCTE"> F  </i>
   <i type="logical" name="LTETE"> F  </i>
   <i type="logical" name="LTRIPLET"> F  </i>
   <i type="logical" name="LFXCEPS"> F  </i>
   <i type="logical" name="LFXHEG"> F  </i>
   <i type="int" name="NATURALO">     2</i>
   <i type="logical" name="LHOLEGF"> F  </i>
   <i type="logical" name="L2ORDER"> F  </i>
   <i type="logical" name="LDMP1"> F  </i>
   <i type="logical" name="LMP2LT"> F  </i>
   <i type="logical" name="LSMP2LT"> F  </i>
   <i type="logical" name="LGWLF"> F  </i>
   <i name="ENCUTGW">     -1.60000002</i>
   <i name="ENCUTGWSOFT">     -1.60000002</i>
   <i name="ENCUTLF">     -1.00000000</i>
   <i type="logical" name="ESF_SPLINES"> F  </i>
   <i name="ESF_CONV">      0.01000000</i>
   <i type="int" name="ESF_NINTER">    15</i>
   <i type="int" name="LMAXMP2">    -1</i>
   <i name="SCISSOR">      0.00000000</i>
   <i type="int" name="NOMEGA">     0</i>
   <i type="int" name="NOMEGAR">     0</i>
   <i type="int" name="NBANDSGW">    -1</i>
   <i type="int" name="NBANDSO">    -1</i>
   <i type="int" name="NBANDSV">    -1</i>
   <i type="int" name="NELMGW">     1</i>
   <i type="int" name="NELMHF">     1</i>
   <i type="int" name="DIM">     3</i>
   <i type="int" name="IESPILON">     4</i>
   <i type="int" name="ANTIRES">     0</i>
   <i name="OMEGAMAX">    -30.00000000</i>
   <i name="OMEGAMIN">    -30.00000000</i>
   <i name="OMEGATL">   -200.00000000</i>
   <i type="int" name="OMEGAGRID">     0</i>
   <i name="CSHIFT">     -0.10000000</i>
   <i type="logical" name="LSELFENERGY"> F  </i>
   <i type="logical" name="LSPECTRAL"> F  </i>
   <i type="logical" name="LSPECTRALGW"> F  </i>
   <i type="logical" name="LSINGLES"> F  </i>
   <i type="logical" name="LFERMIGW"> F  </i>
   <i type="logical" name="ODDONLYGW"> F  </i>
   <i type="logical" name="EVENONLYGW"> F  </i>
   <i type="int" name="NKREDLFX">     1</i>
   <i type="int" name="NKREDLFY">     1</i>
   <i type="int" name="NKREDLFZ">     1</i>
   <i type="int" name="MAXMEM">  2800</i>
   <i type="int" name="TELESCOPE">     0</i>
   <i type="int" name="NTAUPAR">    -1</i>
   <i type="int" name="NOMEGAPAR">    -1</i>
   <i name="DAMP_NEWTON">      0.80000001</i>
   <i name="LAMBDA">      1.00000000</i>
  </separator>
  <separator name="External order field" >
   <i name="OFIELD_KAPPA">      0.00000000</i>
   <v name="OFIELD_K">      0.00000000      0.00000000      0.00000000</v>
   <i name="OFIELD_Q6_NEAR">      0.00000000</i>
   <i name="OFIELD_Q6_FAR">      0.00000000</i>
   <i name="OFIELD_A">      0.00000000</i>
  </separator>
  <separator name="optional k-points parameters" >
   <i type="int" name="KPOINTS_OPT_MODE">     1</i>
   <i type="logical" name="LKPOINTS_OPT"> F  </i>
  </separator>
 </parameters>
 <atominfo>
  <atoms>      37 </atoms>
  <types>       4 </types>
  <array name="atoms" >
   <dimension dim="1">ion</dimension>
   <field type="string">element</field>
   <field type="int">atomtype</field>
   <set>
    <rc><c>Cr</c><c>   1</c></rc>
    <rc><c>Cr</c><c>   1</c></rc>
    <rc><c>Cr</c><c>   1</c></rc>
    <rc><c>Cr</c><c>   1</c></rc>
    <rc><c>Cr</c><c>   1</c></rc>
    <rc><c>Cr</c><c>   1</c></rc>
    <rc><c>Cr</c><c>   1</c></rc>
    <rc><c>Cr</c><c>   1</c></rc>
    <rc><c>La</c><c>   2</c></rc>
    <rc><c>La</c><c>   2</c></rc>
    <rc><c>La</c><c>   2</c></rc>
    <rc><c>La</c><c>   2</c></rc>
    <rc><c>La</c><c>   2</c></rc>
    <rc><c>La</c><c>   2</c></rc>
    <rc><c>O </c><c>   3</c></rc>
    <rc><c>O </c><c>   3</c></rc>
    <rc><c>O </c><c>   3</c></rc>
    <rc><c>O </c><c>   3</c></rc>
    <rc><c>O </c><c>   3</c></rc>
    <rc><c>O </c><c>   3</c></rc>
    <rc><c>O </c><c>   3</c></rc>
    <rc><c>O </c><c>   3</c></rc>
    <rc><c>O </c><c>   3</c></rc>
    <rc><c>O </c><c>   3</c></rc>
    <rc><c>O </c><c>   3</c></rc>
    <rc><c>O </c><c>   3</c></rc>
    <rc><c>O </c><c>   3</c></rc>
    <rc><c>O </c><c>   3</c></rc>
    <rc><c>O </c><c>   3</c></rc>
    <rc><c>O </c><c>   3</c></rc>
    <rc><c>O </c><c>   3</c></rc>
    <rc><c>O </c><c>   3</c></rc>
    <rc><c>O </c><c>   3</c></rc>
    <rc><c>O </c><c>   3</c></rc>
    <rc><c>O </c><c>   3</c></rc>
    <rc><c>O </c><c>   3</c></rc>
    <rc><c>H </c><c>   4</c></rc>
   </set>
  </array>
  <array name="atomtypes" >
   <dimension dim="1">type</dimension>
   <field type="int">atomspertype</field>
   <field type="string">element</field>
   <field>mass</field>
   <field>valence</field>
   <field type="string">pseudopotential</field>
   <set>
    <rc><c>   8</c><c>Cr</c><c>     51.99600000</c><c>     12.00000000</c><c>  PAW_PBE Cr_pv 02Aug2007               </c></rc>
    <rc><c>   6</c><c>La</c><c>    138.90000000</c><c>     11.00000000</c><c>  PAW_PBE La 06Sep2000                  </c></rc>
    <rc><c>  22</c><c>O </c><c>     16.00000000</c><c>      6.00000000</c><c>  PAW_PBE O 08Apr2002                   </c></rc>
    <rc><c>   1</c><c>H </c><c>      1.00000000</c><c>      1.00000000</c><c>  PAW_PBE H 15Jun2001                   </c></rc>
   </set>
  </array>
 </atominfo>
 <structure name="initialpos" >
  <crystal>
   <varray name="basis" >
    <v>       5.53670000       0.00000000       0.00000000 </v>
    <v>       0.00000000       5.74730000       0.00000000 </v>
    <v>       0.00000000       0.00000000      29.09039264 </v>
   </varray>
   <i name="volume">    925.68759245 </i>
   <varray name="rec_basis" >
    <v>       0.18061300       0.00000000       0.00000000 </v>
    <v>       0.00000000       0.17399475       0.00000000 </v>
    <v>       0.00000000       0.00000000       0.03437561 </v>
   </varray>
  </crystal>
  <varray name="positions" >
   <v>       0.00000000       0.50000000       0.00343756 </v>
   <v>       0.50000000       0.00000000       0.00343756 </v>
   <v>       0.50000000       0.00000000       0.13566163 </v>
   <v>       0.00000000       0.50000000       0.13566163 </v>
   <v>       0.99986929       0.49938438       0.26937126 </v>
   <v>       0.50013071       0.99938438       0.26937126 </v>
   <v>       0.48939587       0.00315503       0.40006453 </v>
   <v>       0.01060413       0.50315503       0.40006453 </v>
   <v>       0.50780000       0.54900000       0.06954959 </v>
   <v>       0.99220000       0.04900000       0.06954959 </v>
   <v>       0.49220000       0.45100000       0.20177366 </v>
   <v>       0.00780000       0.95100000       0.20177366 </v>
   <v>       0.50957389       0.54416646       0.33581737 </v>
   <v>       0.99042611       0.04416646       0.33581737 </v>
   <v>       0.77440000       0.80660000       0.01359237 </v>
   <v>       0.72560000       0.30660000       0.01359237 </v>
   <v>       0.42550000       0.98740000       0.06954959 </v>
   <v>       0.07450000       0.48740000       0.06954959 </v>
   <v>       0.72560000       0.30660000       0.12550682 </v>
   <v>       0.77440000       0.80660000       0.12550682 </v>
   <v>       0.22560000       0.19340000       0.14581644 </v>
   <v>       0.27440000       0.69340000       0.14581644 </v>
   <v>       0.57450000       0.01260000       0.20177366 </v>
   <v>       0.92550000       0.51260000       0.20177366 </v>
   <v>       0.28870533       0.69634117       0.25614362 </v>
   <v>       0.21129467       0.19634117       0.25614362 </v>
   <v>       0.79204805       0.80781865       0.27752619 </v>
   <v>       0.70795195       0.30781865       0.27752619 </v>
   <v>       0.42984338       0.00357119       0.33324504 </v>
   <v>       0.07015662       0.50357119       0.33324504 </v>
   <v>       0.71908670       0.30128723       0.38774270 </v>
   <v>       0.78091330       0.80128723       0.38774270 </v>
   <v>       0.21339458       0.19228727       0.40834875 </v>
   <v>       0.28660542       0.69228727       0.40834875 </v>
   <v>       0.00000000       0.62315878       0.47022484 </v>
   <v>       0.00000000       0.38311950       0.48748571 </v>
   <v>       0.00000000       0.40195910       0.52444123 </v>
  </varray>
  <varray name="selective"  type="logical" >
   <v type="logical" >  F  F  F </v>
   <v type="logical" >  F  F  F </v>
   <v type="logical" >  F  F  F </v>
   <v type="logical" >  F  F  F </v>
   <v type="logical" >  T  T  T </v>
   <v type="logical" >  T  T  T </v>
   <v type="logical" >  T  T  T </v>
   <v type="logical" >  T  T  T </v>
   <v type="logical" >  F  F  F </v>
   <v type="logical" >  F  F  F </v>
   <v type="logical" >  F  F  F </v>
   <v type="logical" >  F  F  F </v>
   <v type="logical" >  T  T  T </v>
   <v type="logical" >  T  T  T </v>
   <v type="logical" >  F  F  F </v>
   <v type="logical" >  F  F  F </v>
   <v type="logical" >  F  F  F </v>
   <v type="logical" >  F  F  F </v>
   <v type="logical" >  F  F  F </v>
   <v type="logical" >  F  F  F </v>
   <v type="logical" >  F  F  F </v>
   <v type="logical" >  F  F  F </v>
   <v type="logical" >  F  F  F </v>
   <v type="logical" >  F  F  F </v>
   <v type="logical" >  T  T  T </v>
   <v type="logical" >  T  T  T </v>
   <v type="logical" >  T  T  T </v>
   <v type="logical" >  T  T  T </v>
   <v type="logical" >  T  T  T </v>
   <v type="logical" >  T  T  T </v>
   <v type="logical" >  T  T  T </v>
   <v type="logical" >  T  T  T </v>
   <v type="logical" >  T  T  T </v>
   <v type="logical" >  T  T  T </v>
   <v type="logical" >  T  T  T </v>
   <v type="logical" >  T  T  T </v>
   <v type="logical" >  T  T  T </v>
  </varray>
  <nose>
   <v>      -3.00000000       0.00000000       0.00010000       0.00010000 </v>
  </nose>
 </structure>
 <calculation>
  <scstep>
   <time name="dav">    0.39    0.39</time>
   <time name="total">    1.27    1.28</time>
   <dipole>
    <v name="dipole">      0.00000000       0.00000000       0.00009775 </v>
    <i name="Tr[quadrupol]">  -1849.59621110 </i>
    <i name="Echarged">      0.00000000 </i>
    <i name="Edipol_quadrupol">      0.00000000 </i>
    <i name="Eion">      0.00000000 </i>
   </dipole>
   <energy>
    <i name="alphaZ">    617.34398607 </i>
    <i name="ewald"> 139245.51901856 </i>
    <i name="hartreedc">-164361.23756406 </i>
    <i name="XCdc">   1235.33212615 </i>
    <i name="pawpsdc">  21948.51529783 </i>
    <i name="pawaedc"> -22371.27871421 </i>
    <i name="eentropy">     -0.19342876 </i>
    <i name="bandstr">    464.56252028 </i>
    <i name="atom">  27901.22237413 </i>
    <i name="e_fr_energy">   4679.78561600 </i>
    <i name="e_wo_entrp">   4679.97904476 </i>
    <i name="e_0_energy">   4679.88233038 </i>
   </energy>
  </scstep>
  <scstep>
   <time name="dav">    0.39    0.40</time>
   <time name="total">    0.39    0.40</time>
   <dipole>
    <v name="dipole">      0.00000000       0.00000000       0.00009775 </v>
    <i name="Tr[quadrupol]">  -1849.59621110 </i>
    <i name="Echarged">      0.00000000 </i>
    <i name="Edipol_quadrupol">      0.00000000 </i>
    <i name="Eion">      0.00000000 </i>
   </dipole>
   <energy>
    <i name="e_fr_energy">   1003.05532852 </i>
    <i name="e_wo_entrp">   1003.66275370 </i>
    <i name="e_0_energy">   1003.35904111 </i>
   </energy>
  </scstep>
  <scstep>
   <time name="dav">    0.45    0.46</time>
   <time name="total">    0.45    0.46</time>
   <dipole>
    <v name="dipole">      0.00000000       0.00000000       0.00009775 </v>
    <i name="Tr[quadrupol]">  -1849.59621110 </i>
    <i name="Echarged">      0.00000000 </i>
    <i name="Edipol_quadrupol">      0.00000000 </i>
    <i name="Eion">      0.00000000 </i>
   </dipole>
   <energy>
    <i name="e_fr_energy">   -150.76778332 </i>
    <i name="e_wo_entrp">   -149.56847378 </i>
    <i name="e_0_energy">   -150.16812855 </i>
   </energy>
  </scstep>
  <scstep>
   <time name="dav">    0.58    0.59</time>
   <time name="total">    0.58    0.59</time>
   <dipole>
    <v name="dipole">      0.00000000       0.00000000       0.00009775 </v>
    <i name="Tr[quadrupol]">  -1849.59621110 </i>
    <i name="Echarged">      0.00000000 </i>
    <i name="Edipol_quadrupol">      0.00000000 </i>
    <i name="Eion">      0.00000000 </i>
   </dipole>
   <energy>
    <i name="e_fr_energy">   -355.56434586 </i>
    <i name="e_wo_entrp">   -353.98138919 </i>
    <i name="e_0_energy">   -354.77286752 </i>
   </energy>
  </scstep>
  <scstep>
   <time name="dav">    0.64    0.64</time>
   <time name="total">    0.66    0.66</time>
   <dipole>
    <v name="dipole">      0.00000000       0.00000000       0.00009775 </v>
    <i name="Tr[quadrupol]">  -1849.59621110 </i>
    <i name="Echarged">      0.00000000 </i>
    <i name="Edipol_quadrupol">      0.00000000 </i>
    <i name="Eion">      0.00000000 </i>
   </dipole>
   <energy>
    <i name="e_fr_energy">   -372.79466859 </i>
    <i name="e_wo_entrp">   -371.41900910 </i>
    <i name="e_0_energy">   -372.10683884 </i>
   </energy>
  </scstep>
  <scstep>
   <time name="dav">    0.54    0.55</time>
   <time name="total">    1.51    1.52</time>
   <dipole>
    <v name="dipole">      0.00000000       0.00000000       1.28743598 </v>
    <i name="Tr[quadrupol]">  -1878.66663189 </i>
    <i name="Echarged">      0.00000000 </i>
    <i name="Edipol_quadrupol">      0.00000000 </i>
    <i name="Eion">      0.00000000 </i>
   </dipole>
   <energy>
    <i name="e_fr_energy">   -592.45273955 </i>
    <i name="e_wo_entrp">   -592.08177769 </i>
    <i name="e_0_energy">   -592.26725862 </i>
   </energy>
  </scstep>
  <scstep>
   <time name="dav">    0.60    0.60</time>
   <time name="total">    1.56    1.57</time>
   <dipole>
    <v name="dipole">      0.00000000       0.00000000       0.05767308 </v>
    <i name="Tr[quadrupol]">  -1867.47111692 </i>
    <i name="Echarged">      0.00000000 </i>
    <i name="Edipol_quadrupol">      0.00000000 </i>
    <i name="Eion">      0.00000000 </i>
   </dipole>
   <energy>
    <i name="e_fr_energy">   -441.59912030 </i>
    <i name="e_wo_entrp">   -441.06427387 </i>
    <i name="e_0_energy">   -441.33169708 </i>
   </energy>
  </scstep>
  <scstep>
   <time name="dav">    0.64    0.65</time>
   <time name="total">    1.60    1.61</time>
   <dipole>
    <v name="dipole">      0.00000000       0.00000000       4.50151690 </v>
    <i name="Tr[quadrupol]">  -1857.32245411 </i>
    <i name="Echarged">      0.00000000 </i>
    <i name="Edipol_quadrupol">      0.00000000 </i>
    <i name="Eion">      0.00000000 </i>
   </dipole>
   <energy>
    <i name="e_fr_energy">  -1139.35750760 </i>
    <i name="e_wo_entrp">  -1139.08957169 </i>
    <i name="e_0_energy">  -1139.22353964 </i>
   </energy>
  </scstep>
  <scstep>
   <time name="dav">    0.59    0.59</time>
   <time name="total">    1.55    1.56</time>
   <dipole>
    <v name="dipole">      0.00000000       0.00000000       4.00770099 </v>
    <i name="Tr[quadrupol]">  -1862.43742034 </i>
    <i name="Echarged">      0.00000000 </i>
    <i name="Edipol_quadrupol">      0.00000000 </i>
    <i name="Eion">      0.00000000 </i>
   </dipole>
   <energy>
    <i name="e_fr_energy">  -1104.07693433 </i>
    <i name="e_wo_entrp">  -1103.43873772 </i>
    <i name="e_0_energy">  -1103.75783603 </i>
   </energy>
  </scstep>
  <scstep>
   <time name="dav">    0.61    0.61</time>
   <time name="total">    1.57    1.58</time>
   <dipole>
    <v name="dipole">      0.00000000       0.00000000       2.47413671 </v>
    <i name="Tr[quadrupol]">  -1860.64781141 </i>
    <i name="Echarged">      0.00000000 </i>
    <i name="Edipol_quadrupol">      0.00000000 </i>
    <i name="Eion">      0.00000000 </i>
   </dipole>
   <energy>
    <i name="e_fr_energy">   -700.67930542 </i>
    <i name="e_wo_entrp">   -700.31984908 </i>
    <i name="e_0_energy">   -700.49957725 </i>
   </energy>
  </scstep>
  <scstep>
   <time name="dav">    0.60    0.60</time>
   <time name="total">    1.56    1.57</time>
   <dipole>
    <v name="dipole">      0.00000000       0.00000000       2.06814083 </v>
    <i name="Tr[quadrupol]">  -1863.45747477 </i>
    <i name="Echarged">      0.00000000 </i>
    <i name="Edipol_quadrupol">      0.00000000 </i>
    <i name="Eion">      0.00000000 </i>
   </dipole>
   <energy>
    <i name="e_fr_energy">   -609.71502989 </i>
    <i name="e_wo_entrp">   -609.34717392 </i>
    <i name="e_0_energy">   -609.53110191 </i>
   </energy>
  </scstep>
  <scstep>
   <time name="dav">    0.55    0.55</time>
   <time name="total">    1.51    1.52</time>
   <dipole>
    <v name="dipole">      0.00000000       0.00000000       1.06287368 </v>
    <i name="Tr[quadrupol]">  -1861.79819260 </i>
    <i name="Echarged">      0.00000000 </i>
    <i name="Edipol_quadrupol">      0.00000000 </i>
    <i name="Eion">      0.00000000 </i>
   </dipole>
   <energy>
    <i name="e_fr_energy">   -452.76264134 </i>
    <i name="e_wo_entrp">   -452.39678481 </i>
    <i name="e_0_energy">   -452.57971307 </i>
   </energy>
  </scstep>
  <scstep>
   <time name="dav">    0.55    0.55</time>
   <time name="total">    1.52    1.53</time>
   <dipole>
    <v name="dipole">      0.00000000       0.00000000       1.25953972 </v>
    <i name="Tr[quadrupol]">  -1861.59340435 </i>
    <i name="Echarged">      0.00000000 </i>
    <i name="Edipol_quadrupol">      0.00000000 </i>
    <i name="Eion">      0.00000000 </i>
   </dipole>
   <energy>
    <i name="e_fr_energy">   -482.81020813 </i>
    <i name="e_wo_entrp">   -482.48559776 </i>
    <i name="e_0_energy">   -482.64790295 </i>
   </energy>
  </scstep>
  <scstep>
   <time name="dav">    0.57    0.57</time>
   <time name="total">    1.53    1.54</time>
   <dipole>
    <v name="dipole">      0.00000000       0.00000000       0.45692932 </v>
    <i name="Tr[quadrupol]">  -1854.37859736 </i>
    <i name="Echarged">      0.00000000 </i>
    <i name="Edipol_quadrupol">      0.00000000 </i>
    <i name="Eion">      0.00000000 </i>
   </dipole>
   <energy>
    <i name="e_fr_energy">   -403.41429971 </i>
    <i name="e_wo_entrp">   -403.01711633 </i>
    <i name="e_0_energy">   -403.21570802 </i>
   </energy>
  </scstep>
  <scstep>
   <time name="dav">    0.58    0.58</time>
   <time name="total">    1.54    1.55</time>
   <dipole>
    <v name="dipole">      0.00000000       0.00000000       0.66038412 </v>
    <i name="Tr[quadrupol]">  -1854.56121288 </i>
    <i name="Echarged">      0.00000000 </i>
    <i name="Edipol_quadrupol">      0.00000000 </i>
    <i name="Eion">      0.00000000 </i>
   </dipole>
   <energy>
    <i name="e_fr_energy">   -410.36072212 </i>
    <i name="e_wo_entrp">   -409.90941701 </i>
    <i name="e_0_energy">   -410.13506956 </i>
   </energy>
  </scstep>
  <scstep>
   <time name="dav">    0.57    0.57</time>
   <time name="total">    1.53    1.54</time>
   <dipole>
    <v name="dipole">      0.00000000       0.00000000       0.85937843 </v>
    <i name="Tr[quadrupol]">  -1852.73137707 </i>
    <i name="Echarged">      0.00000000 </i>
    <i name="Edipol_quadrupol">      0.00000000 </i>
    <i name="Eion">      0.00000000 </i>
   </dipole>
   <energy>
    <i name="e_fr_energy">   -426.03605259 </i>
    <i name="e_wo_entrp">   -425.54600249 </i>
    <i name="e_0_energy">   -425.79102754 </i>
   </energy>
  </scstep>
  <scstep>
   <time name="dav">    0.49    0.49</time>
   <time name="total">    1.45    1.45</time>
   <dipole>
    <v name="dipole">      0.00000000       0.00000000       0.86935211 </v>
    <i name="Tr[quadrupol]">  -1851.63320822 </i>
    <i name="Echarged">      0.00000000 </i>
    <i name="Edipol_quadrupol">      0.00000000 </i>
    <i name="Eion">      0.00000000 </i>
   </dipole>
   <energy>
    <i name="e_fr_energy">   -423.39524574 </i>
    <i name="e_wo_entrp">   -423.07879578 </i>
    <i name="e_0_energy">   -423.23702076 </i>
   </energy>
  </scstep>
  <scstep>
   <time name="dav">    0.56    0.56</time>
   <time name="total">    1.52    1.52</time>
   <dipole>
    <v name="dipole">      0.00000000       0.00000000       0.28366688 </v>
    <i name="Tr[quadrupol]">  -1852.80070253 </i>
    <i name="Echarged">      0.00000000 </i>
    <i name="Edipol_quadrupol">      0.00000000 </i>
    <i name="Eion">      0.00000000 </i>
   </dipole>
   <energy>
    <i name="e_fr_energy">   -382.45918538 </i>
    <i name="e_wo_entrp">   -381.85852420 </i>
    <i name="e_0_energy">   -382.15885479 </i>
   </energy>
  </scstep>
  <scstep>
   <time name="dav">    0.49    0.49</time>
   <time name="total">    1.44    1.45</time>
   <dipole>
    <v name="dipole">      0.00000000       0.00000000      -0.65068592 </v>
    <i name="Tr[quadrupol]">  -1853.65955087 </i>
    <i name="Echarged">      0.00000000 </i>
    <i name="Edipol_quadrupol">      0.00000000 </i>
    <i name="Eion">      0.00000000 </i>
   </dipole>
   <energy>
    <i name="e_fr_energy">   -354.55306740 </i>
    <i name="e_wo_entrp">   -354.40917953 </i>
    <i name="e_0_energy">   -354.48112346 </i>
   </energy>
  </scstep>
  <scstep>
   <time name="dav">    0.48    0.48</time>
   <time name="total">    1.44    1.45</time>
   <dipole>
    <v name="dipole">      0.00000000       0.00000000      -0.36130350 </v>
    <i name="Tr[quadrupol]">  -1858.27500071 </i>
    <i name="Echarged">      0.00000000 </i>
    <i name="Edipol_quadrupol">      0.00000000 </i>
    <i name="Eion">      0.00000000 </i>
   </dipole>
   <energy>
    <i name="e_fr_energy">   -330.21601997 </i>
    <i name="e_wo_entrp">   -329.94112463 </i>
    <i name="e_0_energy">   -330.07857230 </i>
   </energy>
  </scstep>
  <scstep>
   <time name="dav">    0.55    0.56</time>
   <time name="total">    1.51    1.52</time>
   <dipole>
    <v name="dipole">      0.00000000       0.00000000      -0.27238234 </v>
    <i name="Tr[quadrupol]">  -1857.54562494 </i>
    <i name="Echarged">      0.00000000 </i>
    <i name="Edipol_quadrupol">      0.00000000 </i>
    <i name="Eion">      0.00000000 </i>
   </dipole>
   <energy>
    <i name="e_fr_energy">   -316.71305891 </i>
    <i name="e_wo_entrp">   -316.31656734 </i>
    <i name="e_0_energy">   -316.51481313 </i>
   </energy>
  </scstep>
  <scstep>
   <time name="dav">    0.44    0.44</time>
   <time name="total">    1.39    1.40</time>
   <dipole>
    <v name="dipole">      0.00000000       0.00000000       0.01109773 </v>
    <i name="Tr[quadrupol]">  -1855.87315919 </i>
    <i name="Echarged">      0.00000000 </i>
    <i name="Edipol_quadrupol">      0.00000000 </i>
    <i name="Eion">      0.00000000 </i>
   </dipole>
   <energy>
    <i name="e_fr_energy">   -303.09792070 </i>
    <i name="e_wo_entrp">   -302.57191012 </i>
    <i name="e_0_energy">   -302.83491541 </i>
   </energy>
  </scstep>
  <scstep>
   <time name="dav">    0.54    0.54</time>
   <time name="total">    1.49    1.50</time>
   <dipole>
    <v name="dipole">      0.00000000       0.00000000      -0.03020822 </v>
    <i name="Tr[quadrupol]">  -1858.31233698 </i>
    <i name="Echarged">      0.00000000 </i>
    <i name="Edipol_quadrupol">      0.00000000 </i>
    <i name="Eion">      0.00000000 </i>
   </dipole>
   <energy>
    <i name="e_fr_energy">   -298.12691012 </i>
    <i name="e_wo_entrp">   -297.43643527 </i>
    <i name="e_0_energy">   -297.78167270 </i>
   </energy>
  </scstep>
  <scstep>
   <time name="dav">    0.49    0.49</time>
   <time name="total">    1.44    1.45</time>
   <dipole>
    <v name="dipole">      0.00000000       0.00000000      -0.25348595 </v>
    <i name="Tr[quadrupol]">  -1856.40344915 </i>
    <i name="Echarged">      0.00000000 </i>
    <i name="Edipol_quadrupol">      0.00000000 </i>
    <i name="Eion">      0.00000000 </i>
   </dipole>
   <energy>
    <i name="e_fr_energy">   -294.55772539 </i>
    <i name="e_wo_entrp">   -293.89856635 </i>
    <i name="e_0_energy">   -294.22814587 </i>
   </energy>
  </scstep>
  <scstep>
   <time name="dav">    0.58    0.58</time>
   <time name="total">    1.53    1.54</time>
   <dipole>
    <v name="dipole">      0.00000000       0.00000000      -0.08194090 </v>
    <i name="Tr[quadrupol]">  -1856.83730926 </i>
    <i name="Echarged">      0.00000000 </i>
    <i name="Edipol_quadrupol">      0.00000000 </i>
    <i name="Eion">      0.00000000 </i>
   </dipole>
   <energy>
    <i name="e_fr_energy">   -294.63837403 </i>
    <i name="e_wo_entrp">   -294.08506652 </i>
    <i name="e_0_energy">   -294.36172027 </i>
   </energy>
  </scstep>
  <scstep>
   <time name="dav">    0.55    0.55</time>
   <time name="total">    1.51    1.52</time>
   <dipole>
    <v name="dipole">      0.00000000       0.00000000       0.05039080 </v>
    <i name="Tr[quadrupol]">  -1858.23590242 </i>
    <i name="Echarged">      0.00000000 </i>
    <i name="Edipol_quadrupol">      0.00000000 </i>
    <i name="Eion">      0.00000000 </i>
   </dipole>
   <energy>
    <i name="e_fr_energy">   -291.29239458 </i>
    <i name="e_wo_entrp">   -290.67845028 </i>
    <i name="e_0_energy">   -290.98542243 </i>
   </energy>
  </scstep>
  <scstep>
   <time name="dav">    0.59    0.59</time>
   <time name="total">    1.54    1.56</time>
   <dipole>
    <v name="dipole">      0.00000000       0.00000000       0.11121168 </v>
    <i name="Tr[quadrupol]">  -1858.93442402 </i>
    <i name="Echarged">      0.00000000 </i>
    <i name="Edipol_quadrupol">      0.00000000 </i>
    <i name="Eion">      0.00000000 </i>
   </dipole>
   <energy>
    <i name="e_fr_energy">   -291.97855014 </i>
    <i name="e_wo_entrp">   -291.43511276 </i>
    <i name="e_0_energy">   -291.70683145 </i>
   </energy>
  </scstep>
  <scstep>
   <time name="dav">    0.55    0.55</time>
   <time name="total">    1.51    1.52</time>
   <dipole>
    <v name="dipole">      0.00000000       0.00000000       0.12328978 </v>
    <i name="Tr[quadrupol]">  -1859.13607097 </i>
    <i name="Echarged">      0.00000000 </i>
    <i name="Edipol_quadrupol">      0.00000000 </i>
    <i name="Eion">      0.00000000 </i>
   </dipole>
   <energy>
    <i name="e_fr_energy">   -291.97300357 </i>
    <i name="e_wo_entrp">   -291.46005648 </i>
    <i name="e_0_energy">   -291.71653002 </i>
   </energy>
  </scstep>
  <scstep>
   <time name="dav">    0.63    0.63</time>
   <time name="total">    1.59    1.60</time>
   <dipole>
    <v name="dipole">      0.00000000       0.00000000       0.12411949 </v>
    <i name="Tr[quadrupol]">  -1859.18969844 </i>
    <i name="Echarged">      0.00000000 </i>
    <i name="Edipol_quadrupol">      0.00000000 </i>
    <i name="Eion">      0.00000000 </i>
   </dipole>
   <energy>
    <i name="e_fr_energy">   -291.98746467 </i>
    <i name="e_wo_entrp">   -291.48036220 </i>
    <i name="e_0_energy">   -291.73391343 </i>
   </energy>
  </scstep>
  <scstep>
   <time name="dav">    0.61    0.61</time>
   <time name="total">    1.54    1.56</time>
   <dipole>
    <v name="dipole">      0.00000000       0.00000000       0.12311115 </v>
    <i name="Tr[quadrupol]">  -1859.15858955 </i>
    <i name="Echarged">      0.00000000 </i>
    <i name="Edipol_quadrupol">      0.00000000 </i>
    <i name="Eion">      0.00000000 </i>
   </dipole>
   <energy>
    <i name="alphaZ">    612.24441183 </i>
    <i name="ewald"> 139245.51901856 </i>
    <i name="hartreedc">-164662.92609360 </i>
    <i name="XCdc">   1245.66650485 </i>
    <i name="pawpsdc">  27013.85767732 </i>
    <i name="pawaedc"> -27463.71288961 </i>
    <i name="eentropy">     -0.50994089 </i>
    <i name="bandstr">  -4183.34191347 </i>
    <i name="atom">  27901.22237413 </i>
    <i name="e_fr_energy">   -291.98085088 </i>
    <i name="e_wo_entrp">   -291.47090999 </i>
    <i name="e_0_energy">   -291.72588043 </i>
   </energy>
  </scstep>
  <structure>
   <crystal>
    <varray name="basis" >
     <v>       5.53670000       0.00000000       0.00000000 </v>
     <v>       0.00000000       5.74730000       0.00000000 </v>
     <v>       0.00000000       0.00000000      29.09039264 </v>
    </varray>
    <i name="volume">    925.68759245 </i>
    <varray name="rec_basis" >
     <v>       0.18061300       0.00000000       0.00000000 </v>
     <v>       0.00000000       0.17399475       0.00000000 </v>
     <v>       0.00000000       0.00000000       0.03437561 </v>
    </varray>
   </crystal>
   <varray name="positions" >
    <v>       0.00000000       0.50000000       0.00343756 </v>
    <v>       0.50000000       0.00000000       0.00343756 </v>
    <v>       0.50000000       0.00000000       0.13566163 </v>
    <v>       0.00000000       0.50000000       0.13566163 </v>
    <v>       0.99986929       0.49938438       0.26937126 </v>
    <v>       0.50013071       0.99938438       0.26937126 </v>
    <v>       0.48939587       0.00315503       0.40006453 </v>
    <v>       0.01060413       0.50315503       0.40006453 </v>
    <v>       0.50780000       0.54900000       0.06954959 </v>
    <v>       0.99220000       0.04900000       0.06954959 </v>
    <v>       0.49220000       0.45100000       0.20177366 </v>
    <v>       0.00780000       0.95100000       0.20177366 </v>
    <v>       0.50957389       0.54416646       0.33581737 </v>
    <v>       0.99042611       0.04416646       0.33581737 </v>
    <v>       0.77440000       0.80660000       0.01359237 </v>
    <v>       0.72560000       0.30660000       0.01359237 </v>
    <v>       0.42550000       0.98740000       0.06954959 </v>
    <v>       0.07450000       0.48740000       0.06954959 </v>
    <v>       0.72560000       0.30660000       0.12550682 </v>
    <v>       0.77440000       0.80660000       0.12550682 </v>
    <v>       0.22560000       0.19340000       0.14581644 </v>
    <v>       0.27440000       0.69340000       0.14581644 </v>
    <v>       0.57450000       0.01260000       0.20177366 </v>
    <v>       0.92550000       0.51260000       0.20177366 </v>
    <v>       0.28870533       0.69634117       0.25614362 </v>
    <v>       0.21129467       0.19634117       0.25614362 </v>
    <v>       0.79204805       0.80781865       0.27752619 </v>
    <v>       0.70795195       0.30781865       0.27752619 </v>
    <v>       0.42984338       0.00357119       0.33324504 </v>
    <v>       0.07015662       0.50357119       0.33324504 </v>
    <v>       0.71908670       0.30128723       0.38774270 </v>
    <v>       0.78091330       0.80128723       0.38774270 </v>
    <v>       0.21339458       0.19228727       0.40834875 </v>
    <v>       0.28660542       0.69228727       0.40834875 </v>
    <v>       0.00000000       0.62315878       0.47022484 </v>
    <v>       0.00000000       0.38311950       0.48748571 </v>
    <v>       0.00000000       0.40195910       0.52444123 </v>
   </varray>
  </structure>
  <varray name="forces" >
   <v>      -0.85965132       1.64420605       2.25687074 </v>
   <v>       2.23869837       1.53430677       3.53170826 </v>
   <v>      -0.12396843       0.60139073       0.09685533 </v>
   <v>       0.08337070       0.58742305       0.10719207 </v>
   <v>      -0.11890360       0.91535892      -0.98777216 </v>
   <v>       0.16695129       0.92190883      -1.04654504 </v>
   <v>      -1.64759470       0.95398715      -1.41165224 </v>
   <v>       1.33910543       2.14597871       2.32397660 </v>
   <v>       0.83726808      -0.41779393      -0.19196619 </v>
   <v>      -0.92576494      -0.40095006      -0.02989872 </v>
   <v>      -0.53867580       0.92760486       0.56715470 </v>
   <v>       0.48605642       1.52709929       0.48609521 </v>
   <v>       0.81574993       0.54847677      -1.05993517 </v>
   <v>      -0.86558155       0.15235959      -0.98437316 </v>
   <v>       3.28104778       0.56705441       0.86888817 </v>
   <v>      -3.98513611       0.11855948       1.05575665 </v>
   <v>       0.35426263       1.63588439      -2.89485180 </v>
   <v>      -0.52941222       1.51443109      -2.50527700 </v>
   <v>      -3.84839394       0.13191368      -5.45544090 </v>
   <v>       4.04100135       0.08394750      -5.49435331 </v>
   <v>      -5.58715012       0.23647119       0.06979330 </v>
   <v>       5.30594872       0.17923036       0.05373073 </v>
   <v>      -0.84664966      -2.42318416      -3.34568094 </v>
   <v>       0.97191519      -2.42850174      -3.47788002 </v>
   <v>      -2.46401197       1.13717835       3.45345464 </v>
   <v>       2.41773264       1.09892397       3.46600372 </v>
   <v>      -0.67550748       1.77509878       0.90350807 </v>
   <v>       0.64009775       1.70341568       0.89174175 </v>
   <v>       0.12363268      -4.40281204       1.64203844 </v>
   <v>      -0.26205113      -4.40779321       0.96709039 </v>
   <v>      -0.96193234      -0.83986300       1.95363982 </v>
   <v>       0.97476500      -0.67660536       1.80039175 </v>
   <v>      -0.22822149      -2.89254769       3.66420437 </v>
   <v>       1.07875187      -2.30716012       2.83715864 </v>
   <v>      -0.49143759      -7.75555960      -0.04566529 </v>
   <v>      -0.16145677       5.64375328      -3.05744952 </v>
   <v>      -0.03485466       0.66680803      -1.00851188 </v>
  </varray>
  <varray name="stress" >
   <v>      -3.83790603       4.01184467      -4.61855857 </v>
   <v>       4.01179758     -12.83294715      14.00567016 </v>
   <v>      -4.62054759      14.00511706     -89.83785981 </v>
  </varray>
  <energy>
   <i name="e_fr_energy">   -291.98085088 </i>
   <i name="e_wo_entrp">   -291.47090999 </i>
   <i name="e_0_energy">   -291.72588043 </i>
  </energy>
  <time name="totalsc">   43.46   43.76</time>
 </calculation>
 <calculation>
  <scstep>
   <time name="dav">    0.39    0.40</time>
   <time name="total">    1.35    1.35</time>
   <dipole>
    <v name="dipole">      0.00000000       0.00000000       0.11749378 </v>
    <i name="Tr[quadrupol]">  -1858.58130128 </i>
    <i name="Echarged">      0.00000000 </i>
    <i name="Edipol_quadrupol">      0.00000000 </i>
    <i name="Eion">      0.00000000 </i>
   </dipole>
   <energy>
    <i name="alphaZ">    612.45247108 </i>
    <i name="ewald"> 139070.79768682 </i>
    <i name="hartreedc">-164477.88546469 </i>
    <i name="XCdc">   1246.23982659 </i>
    <i name="pawpsdc">  27006.45155989 </i>
    <i name="pawaedc"> -27456.29877314 </i>
    <i name="eentropy">     -0.48520503 </i>
    <i name="bandstr">  -4193.69862541 </i>
    <i name="atom">  27901.22237413 </i>
    <i name="e_fr_energy">   -291.20414975 </i>
    <i name="e_wo_entrp">   -290.71894472 </i>
    <i name="e_0_energy">   -290.96154724 </i>
   </energy>
  </scstep>
  <scstep>
   <time name="dav">    0.56    0.56</time>
   <time name="total">    1.51    1.52</time>
   <dipole>
    <v name="dipole">      0.00000000       0.00000000      -0.92130823 </v>
    <i name="Tr[quadrupol]">  -1869.53171076 </i>
    <i name="Echarged">      0.00000000 </i>
    <i name="Edipol_quadrupol">      0.00000000 </i>
    <i name="Eion">      0.00000000 </i>
   </dipole>
   <energy>
    <i name="e_fr_energy">   -374.29831512 </i>
    <i name="e_wo_entrp">   -374.06968664 </i>
    <i name="e_0_energy">   -374.18400088 </i>
   </energy>
  </scstep>
  <scstep>
   <time name="dav">    0.49    0.49</time>
   <time name="total">    1.44    1.45</time>
   <dipole>
    <v name="dipole">      0.00000000       0.00000000      -0.03158895 </v>
    <i name="Tr[quadrupol]">  -1864.81344768 </i>
    <i name="Echarged">      0.00000000 </i>
    <i name="Edipol_quadrupol">      0.00000000 </i>
    <i name="Eion">      0.00000000 </i>
   </dipole>
   <energy>
    <i name="e_fr_energy">   -313.99024488 </i>
    <i name="e_wo_entrp">   -313.58541617 </i>
    <i name="e_0_energy">   -313.78783052 </i>
   </energy>
  </scstep>
  <scstep>
   <time name="dav">    0.49    0.49</time>
   <time name="total">    1.45    1.46</time>
   <dipole>
    <v name="dipole">      0.00000000       0.00000000      -0.83664148 </v>
    <i name="Tr[quadrupol]">  -1863.23177328 </i>
    <i name="Echarged">      0.00000000 </i>
    <i name="Edipol_quadrupol">      0.00000000 </i>
    <i name="Eion">      0.00000000 </i>
   </dipole>
   <energy>
    <i name="e_fr_energy">   -323.71143954 </i>
    <i name="e_wo_entrp">   -323.50434341 </i>
    <i name="e_0_energy">   -323.60789148 </i>
   </energy>
  </scstep>
  <scstep>
   <time name="dav">    0.56    0.57</time>
   <time name="total">    1.52    1.53</time>
   <dipole>
    <v name="dipole">      0.00000000       0.00000000       0.14459315 </v>
    <i name="Tr[quadrupol]">  -1865.57620722 </i>
    <i name="Echarged">      0.00000000 </i>
    <i name="Edipol_quadrupol">      0.00000000 </i>
    <i name="Eion">      0.00000000 </i>
   </dipole>
   <energy>
    <i name="e_fr_energy">   -307.58841000 </i>
    <i name="e_wo_entrp">   -307.20755371 </i>
    <i name="e_0_energy">   -307.39798185 </i>
   </energy>
  </scstep>
  <scstep>
   <time name="dav">    0.51    0.51</time>
   <time name="total">    1.47    1.48</time>
   <dipole>
    <v name="dipole">      0.00000000       0.00000000      -0.07442957 </v>
    <i name="Tr[quadrupol]">  -1862.06571657 </i>
    <i name="Echarged">      0.00000000 </i>
    <i name="Edipol_quadrupol">      0.00000000 </i>
    <i name="Eion">      0.00000000 </i>
   </dipole>
   <energy>
    <i name="e_fr_energy">   -293.30364633 </i>
    <i name="e_wo_entrp">   -292.66810069 </i>
    <i name="e_0_energy">   -292.98587351 </i>
   </energy>
  </scstep>
  <scstep>
   <time name="dav">    0.53    0.53</time>
   <time name="total">    1.48    1.49</time>
   <dipole>
    <v name="dipole">      0.00000000       0.00000000       0.00857968 </v>
    <i name="Tr[quadrupol]">  -1863.08192870 </i>
    <i name="Echarged">      0.00000000 </i>
    <i name="Edipol_quadrupol">      0.00000000 </i>
    <i name="Eion">      0.00000000 </i>
   </dipole>
   <energy>
    <i name="e_fr_energy">   -293.41375151 </i>
    <i name="e_wo_entrp">   -292.78855843 </i>
    <i name="e_0_energy">   -293.10115497 </i>
   </energy>
  </scstep>
  <scstep>
   <time name="dav">    0.49    0.49</time>
   <time name="total">    1.45    1.46</time>
   <dipole>
    <v name="dipole">      0.00000000       0.00000000      -0.13359372 </v>
    <i name="Tr[quadrupol]">  -1862.56423431 </i>
    <i name="Echarged">      0.00000000 </i>
    <i name="Edipol_quadrupol">      0.00000000 </i>
    <i name="Eion">      0.00000000 </i>
   </dipole>
   <energy>
    <i name="e_fr_energy">   -292.07391176 </i>
    <i name="e_wo_entrp">   -291.55651588 </i>
    <i name="e_0_energy">   -291.81521382 </i>
   </energy>
  </scstep>
  <scstep>
   <time name="dav">    0.57    0.58</time>
   <time name="total">    1.54    1.54</time>
   <dipole>
    <v name="dipole">      0.00000000       0.00000000      -0.06071783 </v>
    <i name="Tr[quadrupol]">  -1862.67722929 </i>
    <i name="Echarged">      0.00000000 </i>
    <i name="Edipol_quadrupol">      0.00000000 </i>
    <i name="Eion">      0.00000000 </i>
   </dipole>
   <energy>
    <i name="e_fr_energy">   -292.21824745 </i>
    <i name="e_wo_entrp">   -291.70775046 </i>
    <i name="e_0_energy">   -291.96299895 </i>
   </energy>
  </scstep>
  <scstep>
   <time name="dav">    0.43    0.43</time>
   <time name="total">    1.38    1.39</time>
   <dipole>
    <v name="dipole">      0.00000000       0.00000000       0.04417381 </v>
    <i name="Tr[quadrupol]">  -1862.85047409 </i>
    <i name="Echarged">      0.00000000 </i>
    <i name="Edipol_quadrupol">      0.00000000 </i>
    <i name="Eion">      0.00000000 </i>
   </dipole>
   <energy>
    <i name="e_fr_energy">   -292.58216229 </i>
    <i name="e_wo_entrp">   -292.10871287 </i>
    <i name="e_0_energy">   -292.34543758 </i>
   </energy>
  </scstep>
  <scstep>
   <time name="dav">    0.48    0.49</time>
   <time name="total">    1.44    1.45</time>
   <dipole>
    <v name="dipole">      0.00000000       0.00000000      -0.08166741 </v>
    <i name="Tr[quadrupol]">  -1863.09508006 </i>
    <i name="Echarged">      0.00000000 </i>
    <i name="Edipol_quadrupol">      0.00000000 </i>
    <i name="Eion">      0.00000000 </i>
   </dipole>
   <energy>
    <i name="e_fr_energy">   -292.33433810 </i>
    <i name="e_wo_entrp">   -291.89806599 </i>
    <i name="e_0_energy">   -292.11620204 </i>
   </energy>
  </scstep>
  <scstep>
   <time name="dav">    0.58    0.58</time>
   <time name="total">    1.53    1.55</time>
   <dipole>
    <v name="dipole">      0.00000000       0.00000000      -0.11197189 </v>
    <i name="Tr[quadrupol]">  -1863.13573469 </i>
    <i name="Echarged">      0.00000000 </i>
    <i name="Edipol_quadrupol">      0.00000000 </i>
    <i name="Eion">      0.00000000 </i>
   </dipole>
   <energy>
    <i name="e_fr_energy">   -292.37584601 </i>
    <i name="e_wo_entrp">   -291.94517793 </i>
    <i name="e_0_energy">   -292.16051197 </i>
   </energy>
  </scstep>
  <scstep>
   <time name="dav">    0.45    0.45</time>
   <time name="total">    1.40    1.41</time>
   <dipole>
    <v name="dipole">      0.00000000       0.00000000      -0.08737124 </v>
    <i name="Tr[quadrupol]">  -1863.19576935 </i>
    <i name="Echarged">      0.00000000 </i>
    <i name="Edipol_quadrupol">      0.00000000 </i>
    <i name="Eion">      0.00000000 </i>
   </dipole>
   <energy>
    <i name="e_fr_energy">   -292.35392639 </i>
    <i name="e_wo_entrp">   -291.90045323 </i>
    <i name="e_0_energy">   -292.12718981 </i>
   </energy>
  </scstep>
  <scstep>
   <time name="dav">    0.57    0.57</time>
   <time name="total">    1.53    1.54</time>
   <dipole>
    <v name="dipole">      0.00000000       0.00000000      -0.07727266 </v>
    <i name="Tr[quadrupol]">  -1863.35378721 </i>
    <i name="Echarged">      0.00000000 </i>
    <i name="Edipol_quadrupol">      0.00000000 </i>
    <i name="Eion">      0.00000000 </i>
   </dipole>
   <energy>
    <i name="e_fr_energy">   -292.31434374 </i>
    <i name="e_wo_entrp">   -291.84533710 </i>
    <i name="e_0_energy">   -292.07984042 </i>
   </energy>
  </scstep>
  <scstep>
   <time name="dav">    0.48    0.48</time>
   <time name="total">    1.44    1.45</time>
   <dipole>
    <v name="dipole">      0.00000000       0.00000000      -0.07749131 </v>
    <i name="Tr[quadrupol]">  -1863.34921873 </i>
    <i name="Echarged">      0.00000000 </i>
    <i name="Edipol_quadrupol">      0.00000000 </i>
    <i name="Eion">      0.00000000 </i>
   </dipole>
   <energy>
    <i name="e_fr_energy">   -292.33746781 </i>
    <i name="e_wo_entrp">   -291.87073344 </i>
    <i name="e_0_energy">   -292.10410062 </i>
   </energy>
  </scstep>
  <scstep>
   <time name="dav">    0.49    0.50</time>
   <time name="total">    1.45    1.46</time>
   <dipole>
    <v name="dipole">      0.00000000       0.00000000      -0.09700088 </v>
    <i name="Tr[quadrupol]">  -1863.40202886 </i>
    <i name="Echarged">      0.00000000 </i>
    <i name="Edipol_quadrupol">      0.00000000 </i>
    <i name="Eion">      0.00000000 </i>
   </dipole>
   <energy>
    <i name="e_fr_energy">   -292.37225371 </i>
    <i name="e_wo_entrp">   -291.91843544 </i>
    <i name="e_0_energy">   -292.14534458 </i>
   </energy>
  </scstep>
  <scstep>
   <time name="dav">    0.57    0.57</time>
   <time name="total">    1.52    1.53</time>
   <dipole>
    <v name="dipole">      0.00000000       0.00000000      -0.10431269 </v>
    <i name="Tr[quadrupol]">  -1863.42541793 </i>
    <i name="Echarged">      0.00000000 </i>
    <i name="Edipol_quadrupol">      0.00000000 </i>
    <i name="Eion">      0.00000000 </i>
   </dipole>
   <energy>
    <i name="e_fr_energy">   -292.36531268 </i>
    <i name="e_wo_entrp">   -291.91675160 </i>
    <i name="e_0_energy">   -292.14103214 </i>
   </energy>
  </scstep>
  <scstep>
   <time name="dav">    0.48    0.48</time>
   <time name="total">    1.44    1.45</time>
   <dipole>
    <v name="dipole">      0.00000000       0.00000000      -0.13825501 </v>
    <i name="Tr[quadrupol]">  -1863.43135437 </i>
    <i name="Echarged">      0.00000000 </i>
    <i name="Edipol_quadrupol">      0.00000000 </i>
    <i name="Eion">      0.00000000 </i>
   </dipole>
   <energy>
    <i name="e_fr_energy">   -291.92640240 </i>
    <i name="e_wo_entrp">   -291.38143408 </i>
    <i name="e_0_energy">   -291.65391824 </i>
   </energy>
  </scstep>
  <scstep>
   <time name="dav">    0.48    0.48</time>
   <time name="total">    1.43    1.45</time>
   <dipole>
    <v name="dipole">      0.00000000       0.00000000      -0.14732742 </v>
    <i name="Tr[quadrupol]">  -1863.43545782 </i>
    <i name="Echarged">      0.00000000 </i>
    <i name="Edipol_quadrupol">      0.00000000 </i>
    <i name="Eion">      0.00000000 </i>
   </dipole>
   <energy>
    <i name="e_fr_energy">   -291.96186175 </i>
    <i name="e_wo_entrp">   -291.43152422 </i>
    <i name="e_0_energy">   -291.69669299 </i>
   </energy>
  </scstep>
  <scstep>
   <time name="dav">    0.47    0.47</time>
   <time name="total">    1.42    1.43</time>
   <dipole>
    <v name="dipole">      0.00000000       0.00000000      -0.09573888 </v>
    <i name="Tr[quadrupol]">  -1864.38819425 </i>
    <i name="Echarged">      0.00000000 </i>
    <i name="Edipol_quadrupol">      0.00000000 </i>
    <i name="Eion">      0.00000000 </i>
   </dipole>
   <energy>
    <i name="e_fr_energy">   -291.78858588 </i>
    <i name="e_wo_entrp">   -291.30676876 </i>
    <i name="e_0_energy">   -291.54767732 </i>
   </energy>
  </scstep>
  <scstep>
   <time name="dav">    0.60    0.60</time>
   <time name="total">    1.56    1.57</time>
   <dipole>
    <v name="dipole">      0.00000000       0.00000000      -0.09533533 </v>
    <i name="Tr[quadrupol]">  -1864.44420696 </i>
    <i name="Echarged">      0.00000000 </i>
    <i name="Edipol_quadrupol">      0.00000000 </i>
    <i name="Eion">      0.00000000 </i>
   </dipole>
   <energy>
    <i name="e_fr_energy">   -291.83507959 </i>
    <i name="e_wo_entrp">   -291.36938690 </i>
    <i name="e_0_energy">   -291.60223325 </i>
   </energy>
  </scstep>
  <scstep>
   <time name="dav">    0.52    0.52</time>
   <time name="total">    1.47    1.48</time>
   <dipole>
    <v name="dipole">      0.00000000       0.00000000      -0.10043729 </v>
    <i name="Tr[quadrupol]">  -1864.39936653 </i>
    <i name="Echarged">      0.00000000 </i>
    <i name="Edipol_quadrupol">      0.00000000 </i>
    <i name="Eion">      0.00000000 </i>
   </dipole>
   <energy>
    <i name="e_fr_energy">   -291.75860648 </i>
    <i name="e_wo_entrp">   -291.27440982 </i>
    <i name="e_0_energy">   -291.51650815 </i>
   </energy>
  </scstep>
  <scstep>
   <time name="dav">    0.46    0.46</time>
   <time name="total">    1.42    1.43</time>
   <dipole>
    <v name="dipole">      0.00000000       0.00000000      -0.11300464 </v>
    <i name="Tr[quadrupol]">  -1864.30651994 </i>
    <i name="Echarged">      0.00000000 </i>
    <i name="Edipol_quadrupol">      0.00000000 </i>
    <i name="Eion">      0.00000000 </i>
   </dipole>
   <energy>
    <i name="e_fr_energy">   -291.71827605 </i>
    <i name="e_wo_entrp">   -291.21904914 </i>
    <i name="e_0_energy">   -291.46866259 </i>
   </energy>
  </scstep>
  <scstep>
   <time name="dav">    0.45    0.45</time>
   <time name="total">    1.40    1.41</time>
   <dipole>
    <v name="dipole">      0.00000000       0.00000000      -0.12032910 </v>
    <i name="Tr[quadrupol]">  -1864.79015147 </i>
    <i name="Echarged">      0.00000000 </i>
    <i name="Edipol_quadrupol">      0.00000000 </i>
    <i name="Eion">      0.00000000 </i>
   </dipole>
   <energy>
    <i name="e_fr_energy">   -291.95786909 </i>
    <i name="e_wo_entrp">   -291.53274698 </i>
    <i name="e_0_energy">   -291.74530804 </i>
   </energy>
  </scstep>
  <scstep>
   <time name="dav">    0.55    0.56</time>
   <time name="total">    1.51    1.52</time>
   <dipole>
    <v name="dipole">      0.00000000       0.00000000      -0.10323760 </v>
    <i name="Tr[quadrupol]">  -1864.87909606 </i>
    <i name="Echarged">      0.00000000 </i>
    <i name="Edipol_quadrupol">      0.00000000 </i>
    <i name="Eion">      0.00000000 </i>
   </dipole>
   <energy>
    <i name="e_fr_energy">   -292.11681021 </i>
    <i name="e_wo_entrp">   -291.71162542 </i>
    <i name="e_0_energy">   -291.91421781 </i>
   </energy>
  </scstep>
  <scstep>
   <time name="dav">    0.53    0.53</time>
   <time name="total">    1.49    1.50</time>
   <dipole>
    <v name="dipole">      0.00000000       0.00000000      -0.12363302 </v>
    <i name="Tr[quadrupol]">  -1865.10864643 </i>
    <i name="Echarged">      0.00000000 </i>
    <i name="Edipol_quadrupol">      0.00000000 </i>
    <i name="Eion">      0.00000000 </i>
   </dipole>
   <energy>
    <i name="e_fr_energy">   -292.33574819 </i>
    <i name="e_wo_entrp">   -291.97321933 </i>
    <i name="e_0_energy">   -292.15448376 </i>
   </energy>
  </scstep>
  <scstep>
   <time name="dav">    0.56    0.56</time>
   <time name="total">    1.51    1.52</time>
   <dipole>
    <v name="dipole">      0.00000000       0.00000000      -0.12758049 </v>
    <i name="Tr[quadrupol]">  -1865.27758388 </i>
    <i name="Echarged">      0.00000000 </i>
    <i name="Edipol_quadrupol">      0.00000000 </i>
    <i name="Eion">      0.00000000 </i>
   </dipole>
   <energy>
    <i name="e_fr_energy">   -292.47431664 </i>
    <i name="e_wo_entrp">   -292.12432109 </i>
    <i name="e_0_energy">   -292.29931887 </i>
   </energy>
  </scstep>
  <scstep>
   <time name="dav">    0.52    0.52</time>
   <time name="total">    1.47    1.48</time>
   <dipole>
    <v name="dipole">      0.00000000       0.00000000      -0.11567178 </v>
    <i name="Tr[quadrupol]">  -1865.49894620 </i>
    <i name="Echarged">      0.00000000 </i>
    <i name="Edipol_quadrupol">      0.00000000 </i>
    <i name="Eion">      0.00000000 </i>
   </dipole>
   <energy>
    <i name="e_fr_energy">   -292.55317815 </i>
    <i name="e_wo_entrp">   -292.21761380 </i>
    <i name="e_0_energy">   -292.38539597 </i>
   </energy>
  </scstep>
  <scstep>
   <time name="dav">    0.51    0.51</time>
   <time name="total">    1.46    1.48</time>
   <dipole>
    <v name="dipole">      0.00000000       0.00000000      -0.11261996 </v>
    <i name="Tr[quadrupol]">  -1865.77731970 </i>
    <i name="Echarged">      0.00000000 </i>
    <i name="Edipol_quadrupol">      0.00000000 </i>
    <i name="Eion">      0.00000000 </i>
   </dipole>
   <energy>
    <i name="e_fr_energy">   -292.61432506 </i>
    <i name="e_wo_entrp">   -292.29131618 </i>
    <i name="e_0_energy">   -292.45282062 </i>
   </energy>
  </scstep>
  <scstep>
   <time name="dav">    0.49    0.49</time>
   <time name="total">    1.44    1.44</time>
   <dipole>
    <v name="dipole">      0.00000000       0.00000000      -0.09508025 </v>
    <i name="Tr[quadrupol]">  -1865.92850289 </i>
    <i name="Echarged">      0.00000000 </i>
    <i name="Edipol_quadrupol">      0.00000000 </i>
    <i name="Eion">      0.00000000 </i>
   </dipole>
   <energy>
    <i name="alphaZ">    614.09566279 </i>
    <i name="ewald"> 139070.79768682 </i>
    <i name="hartreedc">-164677.48631808 </i>
    <i name="XCdc">   1250.65005230 </i>
    <i name="pawpsdc">  27836.51549360 </i>
    <i name="pawaedc"> -28287.64477373 </i>
    <i name="eentropy">     -0.37532636 </i>
    <i name="bandstr">  -4000.29710605 </i>
    <i name="atom">  27901.22237413 </i>
    <i name="e_fr_energy">   -292.52225457 </i>
    <i name="e_wo_entrp">   -292.14692820 </i>
    <i name="e_0_energy">   -292.33459138 </i>
   </energy>
  </scstep>
  <structure>
   <crystal>
    <varray name="basis" >
     <v>       5.53670000       0.00000000       0.00000000 </v>
     <v>       0.00000000       5.74730000       0.00000000 </v>
     <v>       0.00000000       0.00000000      29.09039264 </v>
    </varray>
    <i name="volume">    925.68759245 </i>
    <varray name="rec_basis" >
     <v>       0.18061300       0.00000000       0.00000000 </v>
     <v>       0.00000000       0.17399475       0.00000000 </v>
     <v>       0.00000000       0.00000000       0.03437561 </v>
    </varray>
   </crystal>
   <varray name="positions" >
    <v>       0.00000000       0.50000000       0.00343756 </v>
    <v>       0.50000000       0.00000000       0.00343756 </v>
    <v>       0.50000000       0.00000000       0.13566163 </v>
    <v>       0.00000000       0.50000000       0.13566163 </v>
    <v>       0.99955848       0.50168943       0.26887983 </v>
    <v>       0.50056712       0.00170592       0.26885059 </v>
    <v>       0.48508910       0.00555735       0.39936221 </v>
    <v>       0.01410452       0.50855901       0.40122073 </v>
    <v>       0.50780000       0.54900000       0.06954959 </v>
    <v>       0.99220000       0.04900000       0.06954959 </v>
    <v>       0.49220000       0.45100000       0.20177366 </v>
    <v>       0.00780000       0.95100000       0.20177366 </v>
    <v>       0.51170624       0.54554763       0.33529004 </v>
    <v>       0.98816350       0.04455013       0.33532763 </v>
    <v>       0.77440000       0.80660000       0.01359237 </v>
    <v>       0.72560000       0.30660000       0.01359237 </v>
    <v>       0.42550000       0.98740000       0.06954959 </v>
    <v>       0.07450000       0.48740000       0.06954959 </v>
    <v>       0.72560000       0.30660000       0.12550682 </v>
    <v>       0.77440000       0.80660000       0.12550682 </v>
    <v>       0.22560000       0.19340000       0.14581644 </v>
    <v>       0.27440000       0.69340000       0.14581644 </v>
    <v>       0.57450000       0.01260000       0.20177366 </v>
    <v>       0.92550000       0.51260000       0.20177366 </v>
    <v>       0.28226446       0.69920480       0.25786175 </v>
    <v>       0.21761456       0.19910847       0.25786799 </v>
    <v>       0.79028229       0.81228869       0.27797570 </v>
    <v>       0.70962515       0.31210818       0.27796985 </v>
    <v>       0.43016655       0.99248407       0.33406197 </v>
    <v>       0.06947163       0.49247153       0.33372618 </v>
    <v>       0.71657224       0.29917230       0.38871466 </v>
    <v>       0.78346131       0.79958341       0.38863842 </v>
    <v>       0.21279801       0.18500328       0.41017173 </v>
    <v>       0.28942525       0.68647740       0.40976026 </v>
    <v>       0.99871539       0.60362880       0.47020212 </v>
    <v>       0.99957796       0.39733154       0.48596459 </v>
    <v>       0.99990889       0.40363825       0.52393948 </v>
   </varray>
  </structure>
  <varray name="forces" >
   <v>      -0.75471179       1.18782188       2.17740488 </v>
   <v>       1.76231872       0.87200294       4.01778870 </v>
   <v>      -0.13887413      -0.18708515       0.71123815 </v>
   <v>       0.04541243      -0.11652471       0.85741752 </v>
   <v>       0.11448515      -0.39926850       1.59490438 </v>
   <v>       0.14601015      -0.27340700       1.24986125 </v>
   <v>      -0.35787318      -0.28464584      -0.22670531 </v>
   <v>       0.95512942       1.12211375       1.33681906 </v>
   <v>       1.25192561      -1.24353171       0.36666561 </v>
   <v>      -1.34381840      -1.30593001       0.50340415 </v>
   <v>      -0.62609920       0.60456396       0.67308093 </v>
   <v>       0.51617782       0.95169010       0.61390370 </v>
   <v>       0.28780085      -0.57619345       2.34092262 </v>
   <v>      -0.14617299      -0.50259211       2.13525658 </v>
   <v>       3.56492260      -0.00757377       2.15077683 </v>
   <v>      -4.52844738      -0.91780524       2.37938425 </v>
   <v>       0.03028997       0.93637350      -2.18243034 </v>
   <v>      -0.05776515       0.69696517      -1.00774856 </v>
   <v>      -4.01465189      -0.25881006      -5.11618519 </v>
   <v>       4.28369552      -0.54534149      -5.21860766 </v>
   <v>      -5.76619188      -0.60762569       0.89963099 </v>
   <v>       5.44644114      -0.89098018       0.84486563 </v>
   <v>      -0.51946692      -2.97156929      -2.80840105 </v>
   <v>       0.74628404      -3.08481366      -3.25490011 </v>
   <v>       3.56142377       2.17609813      -2.42976890 </v>
   <v>      -3.62462099       1.73145681      -2.64022803 </v>
   <v>      -2.68123721       3.85794415       0.83059306 </v>
   <v>       2.40277086       3.20075342       0.57207187 </v>
   <v>      -1.91179212       4.69527351      -5.90035700 </v>
   <v>       2.87633492       6.17940650      -3.03175520 </v>
   <v>       1.54103221      -0.75040762       2.22384038 </v>
   <v>      -0.34428453      -1.12744589       3.84047653 </v>
   <v>       2.64227185      -4.22091257      -4.78145690 </v>
   <v>      -6.17250987      -5.90439386      -1.07594745 </v>
   <v>       1.15752362       8.12570071       1.33799699 </v>
   <v>      -0.25717020     -10.56207739       9.14653878 </v>
   <v>      -0.08656281       0.40077065      -3.13035114 </v>
  </varray>
  <varray name="stress" >
   <v>      22.81292111       2.14326225      -4.46641832 </v>
   <v>       2.14332276      28.43494250       0.81940460 </v>
   <v>      -4.46825556       0.81866839     -88.57522019 </v>
  </varray>
  <energy>
   <i name="e_fr_energy">   -292.52225457 </i>
   <i name="e_wo_entrp">   -292.14692820 </i>
   <i name="e_0_energy">   -292.33459138 </i>
  </energy>
  <time name="totalsc">   46.16   46.46</time>
 </calculation>
 <calculation>
  <scstep>
   <time name="dav">    0.38    0.38</time>
   <time name="total">    1.34    1.34</time>
   <dipole>
    <v name="dipole">      0.00000000       0.00000000      -0.09293538 </v>
    <i name="Tr[quadrupol]">  -1867.09275075 </i>
    <i name="Echarged">      0.00000000 </i>
    <i name="Edipol_quadrupol">      0.00000000 </i>
    <i name="Eion">      0.00000000 </i>
   </dipole>
   <energy>
    <i name="alphaZ">    614.16017800 </i>
    <i name="ewald"> 139147.19455968 </i>
    <i name="hartreedc">-164761.92826275 </i>
    <i name="XCdc">   1250.48990470 </i>
    <i name="pawpsdc">  27842.60125950 </i>
    <i name="pawaedc"> -28293.70240108 </i>
    <i name="eentropy">     -0.32318793 </i>
    <i name="bandstr">  -3992.56492142 </i>
    <i name="atom">  27901.22237413 </i>
    <i name="e_fr_energy">   -292.85049718 </i>
    <i name="e_wo_entrp">   -292.52730925 </i>
    <i name="e_0_energy">   -292.68890322 </i>
   </energy>
  </scstep>
  <scstep>
   <time name="dav">    0.58    0.58</time>
   <time name="total">    1.54    1.55</time>
   <dipole>
    <v name="dipole">      0.00000000       0.00000000       1.54123299 </v>
    <i name="Tr[quadrupol]">  -1868.99948406 </i>
    <i name="Echarged">      0.00000000 </i>
    <i name="Edipol_quadrupol">      0.00000000 </i>
    <i name="Eion">      0.00000000 </i>
   </dipole>
   <energy>
    <i name="e_fr_energy">   -421.53142536 </i>
    <i name="e_wo_entrp">   -420.63661211 </i>
    <i name="e_0_energy">   -421.08401873 </i>
   </energy>
  </scstep>
  <scstep>
   <time name="dav">    0.56    0.56</time>
   <time name="total">    1.51    1.52</time>
   <dipole>
    <v name="dipole">      0.00000000       0.00000000      -0.22663254 </v>
    <i name="Tr[quadrupol]">  -1866.61975117 </i>
    <i name="Echarged">      0.00000000 </i>
    <i name="Edipol_quadrupol">      0.00000000 </i>
    <i name="Eion">      0.00000000 </i>
   </dipole>
   <energy>
    <i name="e_fr_energy">   -291.08922043 </i>
    <i name="e_wo_entrp">   -290.77661850 </i>
    <i name="e_0_energy">   -290.93291947 </i>
   </energy>
  </scstep>
  <scstep>
   <time name="dav">    0.55    0.55</time>
   <time name="total">    1.50    1.51</time>
   <dipole>
    <v name="dipole">      0.00000000       0.00000000      -0.04417284 </v>
    <i name="Tr[quadrupol]">  -1869.04914556 </i>
    <i name="Echarged">      0.00000000 </i>
    <i name="Edipol_quadrupol">      0.00000000 </i>
    <i name="Eion">      0.00000000 </i>
   </dipole>
   <energy>
    <i name="e_fr_energy">   -293.12908424 </i>
    <i name="e_wo_entrp">   -292.78859444 </i>
    <i name="e_0_energy">   -292.95883934 </i>
   </energy>
  </scstep>
  <scstep>
   <time name="dav">    0.52    0.53</time>
   <time name="total">    1.48    1.49</time>
   <dipole>
    <v name="dipole">      0.00000000       0.00000000      -0.17197623 </v>
    <i name="Tr[quadrupol]">  -1868.75927757 </i>
    <i name="Echarged">      0.00000000 </i>
    <i name="Edipol_quadrupol">      0.00000000 </i>
    <i name="Eion">      0.00000000 </i>
   </dipole>
   <energy>
    <i name="e_fr_energy">   -296.63150836 </i>
    <i name="e_wo_entrp">   -296.45745822 </i>
    <i name="e_0_energy">   -296.54448329 </i>
   </energy>
  </scstep>
  <scstep>
   <time name="dav">    0.53    0.53</time>
   <time name="total">    1.49    1.50</time>
   <dipole>
    <v name="dipole">      0.00000000       0.00000000      -0.03397013 </v>
    <i name="Tr[quadrupol]">  -1869.79863770 </i>
    <i name="Echarged">      0.00000000 </i>
    <i name="Edipol_quadrupol">      0.00000000 </i>
    <i name="Eion">      0.00000000 </i>
   </dipole>
   <energy>
    <i name="e_fr_energy">   -295.60429920 </i>
    <i name="e_wo_entrp">   -295.32056561 </i>
    <i name="e_0_energy">   -295.46243241 </i>
   </energy>
  </scstep>
  <scstep>
   <time name="dav">    0.55    0.55</time>
   <time name="total">    1.51    1.51</time>
   <dipole>
    <v name="dipole">      0.00000000       0.00000000       0.00315965 </v>
    <i name="Tr[quadrupol]">  -1869.01226590 </i>
    <i name="Echarged">      0.00000000 </i>
[...]
        <r>  0.0002  0.0014  0.0000  0.0000 </r>
        <r>  0.0000  0.0002  0.0000  0.0000 </r>
        <r>  0.0000  0.0004  0.0000  0.0000 </r>
        <r>  0.0000  0.0002  0.0000  0.0000 </r>
        <r>  0.0000  0.0000  0.0000  0.0000 </r>
        <r>  0.0000  0.0001  0.0000  0.0000 </r>
        <r>  0.0000  0.0000  0.0000  0.0000 </r>
        <r>  0.0000  0.0001  0.0000  0.0000 </r>
        <r>  0.0000  0.0000  0.0000  0.0000 </r>
        <r>  0.0000  0.0000  0.0000  0.0000 </r>
        <r>  0.0000  0.0000  0.0000  0.0000 </r>
       </set>
       <set comment="band 183">
        <r>  0.0000  0.0003  0.0642  0.0000 </r>
        <r>  0.0002  0.0007  0.0146  0.0000 </r>
        <r>  0.0000  0.0003  0.0177  0.0000 </r>
        <r>  0.0004  0.0003  0.0005  0.0000 </r>
        <r>  0.0002  0.0003  0.0173  0.0000 </r>
        <r>  0.0006  0.0002  0.0011  0.0000 </r>
        <r>  0.0002  0.0000  0.0007  0.0000 </r>
        <r>  0.0001  0.0001  0.0020  0.0000 </r>
        <r>  0.0002  0.0001  0.0159  0.3491 </r>
        <r>  0.0000  0.0001  0.0066  0.2498 </r>
        <r>  0.0001  0.0000  0.0069  0.1087 </r>
        <r>  0.0000  0.0000  0.0020  0.0477 </r>
        <r>  0.0000  0.0000  0.0004  0.0020 </r>
        <r>  0.0000  0.0000  0.0003  0.0025 </r>
        <r>  0.0001  0.0030  0.0000  0.0000 </r>
        <r>  0.0006  0.0033  0.0000  0.0000 </r>
        <r>  0.0000  0.0009  0.0000  0.0000 </r>
        <r>  0.0001  0.0029  0.0000  0.0000 </r>
        <r>  0.0000  0.0002  0.0000  0.0000 </r>
        <r>  0.0002  0.0011  0.0000  0.0000 </r>
        <r>  0.0001  0.0018  0.0000  0.0000 </r>
        <r>  0.0000  0.0006  0.0000  0.0000 </r>
        <r>  0.0007  0.0011  0.0000  0.0000 </r>
        <r>  0.0007  0.0012  0.0000  0.0000 </r>
        <r>  0.0001  0.0002  0.0000  0.0000 </r>
        <r>  0.0002  0.0011  0.0000  0.0000 </r>
        <r>  0.0001  0.0003  0.0000  0.0000 </r>
        <r>  0.0002  0.0006  0.0000  0.0000 </r>
        <r>  0.0000  0.0000  0.0000  0.0000 </r>
        <r>  0.0000  0.0012  0.0000  0.0000 </r>
        <r>  0.0000  0.0000  0.0000  0.0000 </r>
        <r>  0.0000  0.0001  0.0000  0.0000 </r>
        <r>  0.0000  0.0003  0.0000  0.0000 </r>
        <r>  0.0000  0.0001  0.0000  0.0000 </r>
        <r>  0.0000  0.0002  0.0000  0.0000 </r>
        <r>  0.0000  0.0001  0.0000  0.0000 </r>
        <r>  0.0000  0.0000  0.0000  0.0000 </r>
       </set>
       <set comment="band 184">
        <r>  0.0000  0.0023  0.0346  0.0000 </r>
        <r>  0.0001  0.0003  0.0086  0.0000 </r>
        <r>  0.0001  0.0001  0.0130  0.0000 </r>
        <r>  0.0001  0.0002  0.0059  0.0000 </r>
        <r>  0.0000  0.0002  0.0044  0.0000 </r>
        <r>  0.0000  0.0002  0.0020  0.0000 </r>
        <r>  0.0001  0.0001  0.0011  0.0000 </r>
        <r>  0.0000  0.0000  0.0006  0.0000 </r>
        <r>  0.0000  0.0002  0.0126  0.3531 </r>
        <r>  0.0000  0.0001  0.0053  0.2495 </r>
        <r>  0.0000  0.0001  0.0046  0.1317 </r>
        <r>  0.0002  0.0001  0.0029  0.0653 </r>
        <r>  0.0000  0.0000  0.0010  0.0026 </r>
        <r>  0.0000  0.0000  0.0006  0.0015 </r>
        <r>  0.0001  0.0059  0.0000  0.0000 </r>
        <r>  0.0000  0.0023  0.0000  0.0000 </r>
        <r>  0.0001  0.0032  0.0000  0.0000 </r>
        <r>  0.0000  0.0079  0.0000  0.0000 </r>
        <r>  0.0001  0.0014  0.0000  0.0000 </r>
        <r>  0.0001  0.0008  0.0000  0.0000 </r>
        <r>  0.0000  0.0004  0.0000  0.0000 </r>
        <r>  0.0001  0.0008  0.0000  0.0000 </r>
        <r>  0.0005  0.0001  0.0000  0.0000 </r>
        <r>  0.0001  0.0001  0.0000  0.0000 </r>
        <r>  0.0000  0.0003  0.0000  0.0000 </r>
        <r>  0.0000  0.0004  0.0000  0.0000 </r>
        <r>  0.0001  0.0001  0.0000  0.0000 </r>
        <r>  0.0001  0.0006  0.0000  0.0000 </r>
        <r>  0.0000  0.0004  0.0000  0.0000 </r>
        <r>  0.0000  0.0002  0.0000  0.0000 </r>
        <r>  0.0000  0.0001  0.0000  0.0000 </r>
        <r>  0.0000  0.0000  0.0000  0.0000 </r>
        <r>  0.0000  0.0001  0.0000  0.0000 </r>
        <r>  0.0000  0.0001  0.0000  0.0000 </r>
        <r>  0.0000  0.0001  0.0000  0.0000 </r>
        <r>  0.0000  0.0000  0.0000  0.0000 </r>
        <r>  0.0000  0.0000  0.0000  0.0000 </r>
       </set>
       <set comment="band 185">
        <r>  0.0005  0.0007  0.0258  0.0000 </r>
        <r>  0.0001  0.0002  0.0029  0.0000 </r>
        <r>  0.0001  0.0000  0.0147  0.0000 </r>
        <r>  0.0011  0.0000  0.0111  0.0000 </r>
        <r>  0.0001  0.0001  0.0017  0.0000 </r>
        <r>  0.0000  0.0001  0.0019  0.0000 </r>
        <r>  0.0000  0.0000  0.0005  0.0000 </r>
        <r>  0.0000  0.0000  0.0001  0.0000 </r>
        <r>  0.0000  0.0000  0.0053  0.4171 </r>
        <r>  0.0000  0.0001  0.0067  0.0829 </r>
        <r>  0.0001  0.0001  0.0065  0.1277 </r>
        <r>  0.0001  0.0001  0.0078  0.1918 </r>
        <r>  0.0000  0.0000  0.0005  0.0030 </r>
        <r>  0.0000  0.0000  0.0008  0.0060 </r>
        <r>  0.0001  0.0027  0.0000  0.0000 </r>
        <r>  0.0000  0.0035  0.0000  0.0000 </r>
        <r>  0.0001  0.0035  0.0000  0.0000 </r>
        <r>  0.0003  0.0006  0.0000  0.0000 </r>
        <r>  0.0003  0.0022  0.0000  0.0000 </r>
        <r>  0.0000  0.0009  0.0000  0.0000 </r>
        <r>  0.0002  0.0014  0.0000  0.0000 </r>
        <r>  0.0000  0.0030  0.0000  0.0000 </r>
        <r>  0.0004  0.0019  0.0000  0.0000 </r>
        <r>  0.0003  0.0010  0.0000  0.0000 </r>
        <r>  0.0000  0.0001  0.0000  0.0000 </r>
        <r>  0.0000  0.0005  0.0000  0.0000 </r>
        <r>  0.0000  0.0003  0.0000  0.0000 </r>
        <r>  0.0000  0.0001  0.0000  0.0000 </r>
        <r>  0.0000  0.0002  0.0000  0.0000 </r>
        <r>  0.0000  0.0002  0.0000  0.0000 </r>
        <r>  0.0000  0.0000  0.0000  0.0000 </r>
        <r>  0.0000  0.0001  0.0000  0.0000 </r>
        <r>  0.0000  0.0000  0.0000  0.0000 </r>
        <r>  0.0000  0.0000  0.0000  0.0000 </r>
        <r>  0.0000  0.0000  0.0000  0.0000 </r>
        <r>  0.0000  0.0000  0.0000  0.0000 </r>
        <r>  0.0000  0.0000  0.0000  0.0000 </r>
       </set>
       <set comment="band 186">
        <r>  0.0001  0.0007  0.0313  0.0000 </r>
        <r>  0.0004  0.0005  0.0045  0.0000 </r>
        <r>  0.0001  0.0001  0.0137  0.0000 </r>
        <r>  0.0000  0.0003  0.0021  0.0000 </r>
        <r>  0.0000  0.0000  0.0011  0.0000 </r>
        <r>  0.0001  0.0000  0.0013  0.0000 </r>
        <r>  0.0000  0.0000  0.0002  0.0000 </r>
        <r>  0.0000  0.0000  0.0004  0.0000 </r>
        <r>  0.0000  0.0000  0.0010  0.2865 </r>
        <r>  0.0001  0.0001  0.0072  0.3720 </r>
        <r>  0.0000  0.0000  0.0006  0.1137 </r>
        <r>  0.0001  0.0000  0.0018  0.1012 </r>
        <r>  0.0000  0.0000  0.0003  0.0022 </r>
        <r>  0.0000  0.0000  0.0002  0.0012 </r>
        <r>  0.0000  0.0034  0.0000  0.0000 </r>
        <r>  0.0002  0.0018  0.0000  0.0000 </r>
        <r>  0.0003  0.0025  0.0000  0.0000 </r>
        <r>  0.0001  0.0045  0.0000  0.0000 </r>
        <r>  0.0001  0.0005  0.0000  0.0000 </r>
        <r>  0.0000  0.0006  0.0000  0.0000 </r>
        <r>  0.0000  0.0008  0.0000  0.0000 </r>
        <r>  0.0002  0.0011  0.0000  0.0000 </r>
        <r>  0.0000  0.0009  0.0000  0.0000 </r>
        <r>  0.0000  0.0003  0.0000  0.0000 </r>
        <r>  0.0000  0.0002  0.0000  0.0000 </r>
        <r>  0.0000  0.0001  0.0000  0.0000 </r>
        <r>  0.0000  0.0001  0.0000  0.0000 </r>
        <r>  0.0000  0.0003  0.0000  0.0000 </r>
        <r>  0.0000  0.0001  0.0000  0.0000 </r>
        <r>  0.0000  0.0002  0.0000  0.0000 </r>
        <r>  0.0000  0.0001  0.0000  0.0000 </r>
        <r>  0.0000  0.0000  0.0000  0.0000 </r>
        <r>  0.0000  0.0000  0.0000  0.0000 </r>
        <r>  0.0000  0.0000  0.0000  0.0000 </r>
        <r>  0.0000  0.0000  0.0000  0.0000 </r>
        <r>  0.0000  0.0000  0.0000  0.0000 </r>
        <r>  0.0000  0.0000  0.0000  0.0000 </r>
       </set>
       <set comment="band 187">
        <r>  0.0002  0.0026  0.0342  0.0000 </r>
        <r>  0.0003  0.0007  0.0145  0.0000 </r>
        <r>  0.0004  0.0001  0.0393  0.0000 </r>
        <r>  0.0010  0.0001  0.0111  0.0000 </r>
        <r>  0.0000  0.0002  0.0056  0.0000 </r>
        <r>  0.0001  0.0001  0.0082  0.0000 </r>
        <r>  0.0001  0.0000  0.0006  0.0000 </r>
        <r>  0.0000  0.0000  0.0006  0.0000 </r>
        <r>  0.0003  0.0000  0.0154  0.2989 </r>
        <r>  0.0000  0.0001  0.0143  0.1250 </r>
        <r>  0.0001  0.0000  0.0050  0.1633 </r>
        <r>  0.0000  0.0000  0.0039  0.1437 </r>
        <r>  0.0000  0.0000  0.0004  0.0019 </r>
        <r>  0.0000  0.0000  0.0003  0.0011 </r>
        <r>  0.0000  0.0001  0.0000  0.0000 </r>
        <r>  0.0004  0.0132  0.0000  0.0000 </r>
        <r>  0.0004  0.0071  0.0000  0.0000 </r>
        <r>  0.0013  0.0045  0.0000  0.0000 </r>
        <r>  0.0011  0.0031  0.0000  0.0000 </r>
        <r>  0.0001  0.0007  0.0000  0.0000 </r>
        <r>  0.0000  0.0008  0.0000  0.0000 </r>
        <r>  0.0001  0.0033  0.0000  0.0000 </r>
        <r>  0.0003  0.0006  0.0000  0.0000 </r>
        <r>  0.0007  0.0005  0.0000  0.0000 </r>
        <r>  0.0000  0.0003  0.0000  0.0000 </r>
        <r>  0.0000  0.0007  0.0000  0.0000 </r>
        <r>  0.0001  0.0004  0.0000  0.0000 </r>
        <r>  0.0001  0.0002  0.0000  0.0000 </r>
        <r>  0.0000  0.0001  0.0000  0.0000 </r>
        <r>  0.0000  0.0003  0.0000  0.0000 </r>
        <r>  0.0000  0.0000  0.0000  0.0000 </r>
        <r>  0.0000  0.0000  0.0000  0.0000 </r>
        <r>  0.0000  0.0002  0.0000  0.0000 </r>
        <r>  0.0000  0.0000  0.0000  0.0000 </r>
        <r>  0.0000  0.0001  0.0000  0.0000 </r>
        <r>  0.0000  0.0000  0.0000  0.0000 </r>
        <r>  0.0000  0.0000  0.0000  0.0000 </r>
       </set>
       <set comment="band 188">
        <r>  0.0001  0.0006  0.0235  0.0000 </r>
        <r>  0.0001  0.0003  0.0038  0.0000 </r>
        <r>  0.0001  0.0001  0.0106  0.0000 </r>
        <r>  0.0001  0.0001  0.0045  0.0000 </r>
        <r>  0.0001  0.0002  0.0024  0.0000 </r>
        <r>  0.0000  0.0003  0.0100  0.0000 </r>
        <r>  0.0000  0.0000  0.0013  0.0000 </r>
        <r>  0.0000  0.0000  0.0000  0.0000 </r>
        <r>  0.0001  0.0000  0.0028  0.2666 </r>
        <r>  0.0002  0.0001  0.0062  0.1543 </r>
        <r>  0.0001  0.0000  0.0040  0.1666 </r>
        <r>  0.0000  0.0000  0.0049  0.2384 </r>
        <r>  0.0000  0.0000  0.0016  0.0068 </r>
        <r>  0.0000  0.0000  0.0025  0.0108 </r>
        <r>  0.0000  0.0012  0.0000  0.0000 </r>
        <r>  0.0000  0.0006  0.0000  0.0000 </r>
        <r>  0.0003  0.0043  0.0000  0.0000 </r>
        <r>  0.0000  0.0071  0.0000  0.0000 </r>
        <r>  0.0000  0.0004  0.0000  0.0000 </r>
        <r>  0.0000  0.0027  0.0000  0.0000 </r>
        <r>  0.0001  0.0014  0.0000  0.0000 </r>
        <r>  0.0000  0.0006  0.0000  0.0000 </r>
        <r>  0.0008  0.0039  0.0000  0.0000 </r>
        <r>  0.0000  0.0019  0.0000  0.0000 </r>
        <r>  0.0002  0.0021  0.0000  0.0000 </r>
        <r>  0.0000  0.0002  0.0000  0.0000 </r>
        <r>  0.0002  0.0002  0.0000  0.0000 </r>
        <r>  0.0000  0.0002  0.0000  0.0000 </r>
        <r>  0.0000  0.0003  0.0000  0.0000 </r>
        <r>  0.0001  0.0002  0.0000  0.0000 </r>
        <r>  0.0000  0.0000  0.0000  0.0000 </r>
        <r>  0.0000  0.0002  0.0000  0.0000 </r>
        <r>  0.0000  0.0001  0.0000  0.0000 </r>
        <r>  0.0000  0.0002  0.0000  0.0000 </r>
        <r>  0.0000  0.0000  0.0000  0.0000 </r>
        <r>  0.0000  0.0000  0.0000  0.0000 </r>
        <r>  0.0000  0.0000  0.0000  0.0000 </r>
       </set>
       <set comment="band 189">
        <r>  0.0001  0.0000  0.0020  0.0000 </r>
        <r>  0.0000  0.0001  0.0003  0.0000 </r>
        <r>  0.0001  0.0003  0.0117  0.0000 </r>
        <r>  0.0001  0.0001  0.0036  0.0000 </r>
        <r>  0.0003  0.0001  0.0093  0.0000 </r>
        <r>  0.0004  0.0002  0.0038  0.0000 </r>
        <r>  0.0000  0.0001  0.0020  0.0000 </r>
        <r>  0.0001  0.0000  0.0001  0.0000 </r>
        <r>  0.0000  0.0001  0.0042  0.0390 </r>
        <r>  0.0000  0.0000  0.0006  0.0510 </r>
        <r>  0.0001  0.0001  0.0032  0.2097 </r>
        <r>  0.0000  0.0002  0.0133  0.5587 </r>
        <r>  0.0000  0.0001  0.0023  0.0063 </r>
        <r>  0.0000  0.0000  0.0025  0.0124 </r>
        <r>  0.0000  0.0002  0.0000  0.0000 </r>
        <r>  0.0000  0.0003  0.0000  0.0000 </r>
        <r>  0.0000  0.0002  0.0000  0.0000 </r>
        <r>  0.0000  0.0005  0.0000  0.0000 </r>
        <r>  0.0007  0.0005  0.0000  0.0000 </r>
        <r>  0.0000  0.0010  0.0000  0.0000 </r>
        <r>  0.0000  0.0005  0.0000  0.0000 </r>
        <r>  0.0000  0.0012  0.0000  0.0000 </r>
        <r>  0.0000  0.0006  0.0000  0.0000 </r>
        <r>  0.0001  0.0005  0.0000  0.0000 </r>
        <r>  0.0001  0.0007  0.0000  0.0000 </r>
        <r>  0.0000  0.0009  0.0000  0.0000 </r>
        <r>  0.0000  0.0001  0.0000  0.0000 </r>
        <r>  0.0006  0.0005  0.0000  0.0000 </r>
        <r>  0.0001  0.0010  0.0000  0.0000 </r>
        <r>  0.0001  0.0004  0.0000  0.0000 </r>
        <r>  0.0000  0.0003  0.0000  0.0000 </r>
        <r>  0.0000  0.0004  0.0000  0.0000 </r>
        <r>  0.0000  0.0001  0.0000  0.0000 </r>
        <r>  0.0000  0.0001  0.0000  0.0000 </r>
        <r>  0.0000  0.0000  0.0000  0.0000 </r>
        <r>  0.0000  0.0000  0.0000  0.0000 </r>
        <r>  0.0000  0.0000  0.0000  0.0000 </r>
       </set>
       <set comment="band 190">
        <r>  0.0000  0.0002  0.0075  0.0000 </r>
        <r>  0.0001  0.0000  0.0016  0.0000 </r>
        <r>  0.0006  0.0001  0.0243  0.0000 </r>
        <r>  0.0018  0.0002  0.0038  0.0000 </r>
        <r>  0.0014  0.0002  0.0462  0.0000 </r>
        <r>  0.0015  0.0000  0.0226  0.0000 </r>
        <r>  0.0002  0.0001  0.0029  0.0000 </r>
        <r>  0.0005  0.0001  0.0016  0.0000 </r>
        <r>  0.0002  0.0001  0.0023  0.0730 </r>
        <r>  0.0000  0.0002  0.0009  0.0583 </r>
        <r>  0.0002  0.0006  0.0148  0.2372 </r>
        <r>  0.0004  0.0004  0.0105  0.3320 </r>
        <r>  0.0000  0.0001  0.0062  0.0195 </r>
        <r>  0.0000  0.0002  0.0039  0.0049 </r>
        <r>  0.0000  0.0021  0.0000  0.0000 </r>
        <r>  0.0000  0.0008  0.0000  0.0000 </r>
        <r>  0.0000  0.0008  0.0000  0.0000 </r>
        <r>  0.0002  0.0012  0.0000  0.0000 </r>
        <r>  0.0001  0.0013  0.0000  0.0000 </r>
        <r>  0.0007  0.0019  0.0000  0.0000 </r>
        <r>  0.0000  0.0022  0.0000  0.0000 </r>
        <r>  0.0001  0.0042  0.0000  0.0000 </r>
        <r>  0.0003  0.0035  0.0000  0.0000 </r>
        <r>  0.0015  0.0078  0.0000  0.0000 </r>
        <r>  0.0009  0.0045  0.0000  0.0000 </r>
        <r>  0.0017  0.0043  0.0000  0.0000 </r>
        <r>  0.0004  0.0020  0.0000  0.0000 </r>
        <r>  0.0001  0.0008  0.0000  0.0000 </r>
        <r>  0.0004  0.0016  0.0000  0.0000 </r>
        <r>  0.0004  0.0025  0.0000  0.0000 </r>
        <r>  0.0000  0.0007  0.0000  0.0000 </r>
        <r>  0.0000  0.0004  0.0000  0.0000 </r>
        <r>  0.0000  0.0006  0.0000  0.0000 </r>
        <r>  0.0001  0.0004  0.0000  0.0000 </r>
        <r>  0.0000  0.0000  0.0000  0.0000 </r>
        <r>  0.0000  0.0000  0.0000  0.0000 </r>
        <r>  0.0000  0.0000  0.0000  0.0000 </r>
       </set>
      </set>
     </set>
    </set>
   </array>
  </projected>
 </calculation>
 <structure name="finalpos" >
  <crystal>
   <varray name="basis" >
    <v>       5.53670000       0.00000000       0.00000000 </v>
    <v>       0.00000000       5.74730000       0.00000000 </v>
    <v>       0.00000000       0.00000000      29.09039264 </v>
   </varray>
   <i name="volume">    925.68759245 </i>
   <varray name="rec_basis" >
    <v>       0.18061300       0.00000000       0.00000000 </v>
    <v>       0.00000000       0.17399475       0.00000000 </v>
    <v>       0.00000000       0.00000000       0.03437561 </v>
   </varray>
  </crystal>
  <varray name="positions" >
   <v>       0.00000000       0.50000000       0.00343756 </v>
   <v>       0.50000000       0.00000000       0.00343756 </v>
   <v>       0.50000000       0.00000000       0.13566163 </v>
   <v>       0.00000000       0.50000000       0.13566163 </v>
   <v>       0.99957277       0.50217841       0.26904831 </v>
   <v>       0.50076437       0.00229157       0.26902044 </v>
   <v>       0.48399344       0.00629159       0.39918037 </v>
   <v>       0.01474065       0.51055531       0.40158632 </v>
   <v>       0.50780000       0.54900000       0.06954959 </v>
   <v>       0.99220000       0.04900000       0.06954959 </v>
   <v>       0.49220000       0.45100000       0.20177366 </v>
   <v>       0.00780000       0.95100000       0.20177366 </v>
   <v>       0.51240121       0.54556020       0.33564860 </v>
   <v>       0.98754272       0.04459059       0.33565269 </v>
   <v>       0.77440000       0.80660000       0.01359237 </v>
   <v>       0.72560000       0.30660000       0.01359237 </v>
   <v>       0.42550000       0.98740000       0.06954959 </v>
   <v>       0.07450000       0.48740000       0.06954959 </v>
   <v>       0.72560000       0.30660000       0.12550682 </v>
   <v>       0.77440000       0.80660000       0.12550682 </v>
   <v>       0.22560000       0.19340000       0.14581644 </v>
   <v>       0.27440000       0.69340000       0.14581644 </v>
   <v>       0.57450000       0.01260000       0.20177366 </v>
   <v>       0.92550000       0.51260000       0.20177366 </v>
   <v>       0.28416882       0.69886347       0.25707798 </v>
   <v>       0.21583462       0.19864612       0.25705473 </v>
   <v>       0.78790199       0.81489384       0.27811092 </v>
   <v>       0.71213427       0.31463809       0.27810779 </v>
   <v>       0.42891778       0.99525932       0.33336351 </v>
   <v>       0.07050722       0.49557730       0.33316593 </v>
   <v>       0.71380372       0.29596587       0.38956811 </v>
   <v>       0.78631053       0.79748720       0.38931574 </v>
   <v>       0.21556939       0.17838147       0.41096258 </v>
   <v>       0.28601285       0.68312250       0.41014417 </v>
   <v>       0.99948484       0.59999733       0.47081872 </v>
   <v>       0.99907200       0.39779629       0.48580491 </v>
   <v>       0.99994560       0.40452407       0.52350675 </v>
  </varray>
  <varray name="selective"  type="logical" >
   <v type="logical" >  F  F  F </v>
   <v type="logical" >  F  F  F </v>
   <v type="logical" >  F  F  F </v>
   <v type="logical" >  F  F  F </v>
   <v type="logical" >  T  T  T </v>
   <v type="logical" >  T  T  T </v>
   <v type="logical" >  T  T  T </v>
   <v type="logical" >  T  T  T </v>
   <v type="logical" >  F  F  F </v>
   <v type="logical" >  F  F  F </v>
   <v type="logical" >  F  F  F </v>
   <v type="logical" >  F  F  F </v>
   <v type="logical" >  T  T  T </v>
   <v type="logical" >  T  T  T </v>
   <v type="logical" >  F  F  F </v>
   <v type="logical" >  F  F  F </v>
   <v type="logical" >  F  F  F </v>
   <v type="logical" >  F  F  F </v>
   <v type="logical" >  F  F  F </v>
   <v type="logical" >  F  F  F </v>
   <v type="logical" >  F  F  F </v>
   <v type="logical" >  F  F  F </v>
   <v type="logical" >  F  F  F </v>
   <v type="logical" >  F  F  F </v>
   <v type="logical" >  T  T  T </v>
   <v type="logical" >  T  T  T </v>
   <v type="logical" >  T  T  T </v>
   <v type="logical" >  T  T  T </v>
   <v type="logical" >  T  T  T </v>
   <v type="logical" >  T  T  T </v>
   <v type="logical" >  T  T  T </v>
   <v type="logical" >  T  T  T </v>
   <v type="logical" >  T  T  T </v>
   <v type="logical" >  T  T  T </v>
   <v type="logical" >  T  T  T </v>
   <v type="logical" >  T  T  T </v>
   <v type="logical" >  T  T  T </v>
  </varray>
  <nose>
   <v>      -3.00000000       0.00000000       0.00010000       0.00010000 </v>
  </nose>
 </structure>
</modeling>
