unknown system                          
           1
     5.536700    0.000000    0.000000
     0.000000    5.747300    0.000000
     0.000000    0.000000   29.090393
   Cr   La   O    H 
     8     6    22     1
Direct configuration=     1
   0.00000000  0.50000000  0.00343756
   0.50000000  0.00000000  0.00343756
   0.50000000  0.00000000  0.13566163
   0.00000000  0.50000000  0.13566163
   0.99986929  0.49938438  0.26937126
   0.50013071  0.99938438  0.26937126
   0.48939587  0.00315503  0.40006453
   0.01060413  0.50315503  0.40006453
   0.50780000  0.54900000  0.06954959
   0.99220000  0.04900000  0.06954959
   0.49220000  0.45100000  0.20177366
   0.00780000  0.95100000  0.20177366
   0.50957389  0.54416646  0.33581737
   0.99042611  0.04416646  0.33581737
   0.77440000  0.80660000  0.01359237
   0.72560000  0.30660000  0.01359237
   0.42550000  0.98740000  0.06954959
   0.07450000  0.48740000  0.06954959
   0.72560000  0.30660000  0.12550682
   0.77440000  0.80660000  0.12550682
   0.22560000  0.19340000  0.14581644
   0.27440000  0.69340000  0.14581644
   0.57450000  0.01260000  0.20177366
   0.92550000  0.51260000  0.20177366
   0.28870533  0.69634117  0.25614362
   0.21129467  0.19634117  0.25614362
   0.79204805  0.80781865  0.27752619
   0.70795195  0.30781865  0.27752619
   0.42984338  0.00357119  0.33324504
   0.07015662  0.50357119  0.33324504
   0.71908670  0.30128723  0.38774270
   0.78091330  0.80128723  0.38774270
   0.21339458  0.19228727  0.40834875
   0.28660542  0.69228727  0.40834875
   0.00000000  0.62315878  0.47022484
   0.00000000  0.38311950  0.48748571
   0.00000000  0.40195910  0.52444123
Direct configuration=     2
   0.00000000  0.50000000  0.00343756
   0.50000000  0.00000000  0.00343756
   0.50000000  0.00000000  0.13566163
   0.00000000  0.50000000  0.13566163
   0.99955848  0.50168943  0.26887983
   0.50056712  0.00170592  0.26885059
   0.48508910  0.00555735  0.39936221
   0.01410452  0.50855901  0.40122073
   0.50780000  0.54900000  0.06954959
   0.99220000  0.04900000  0.06954959
   0.49220000  0.45100000  0.20177366
   0.00780000  0.95100000  0.20177366
   0.51170624  0.54554763  0.33529004
   0.98816350  0.04455013  0.33532763
   0.77440000  0.80660000  0.01359237
   0.72560000  0.30660000  0.01359237
   0.42550000  0.98740000  0.06954959
   0.07450000  0.48740000  0.06954959
   0.72560000  0.30660000  0.12550682
   0.77440000  0.80660000  0.12550682
   0.22560000  0.19340000  0.14581644
   0.27440000  0.69340000  0.14581644
   0.57450000  0.01260000  0.20177366
   0.92550000  0.51260000  0.20177366
   0.28226446  0.69920480  0.25786175
   0.21761456  0.19910847  0.25786799
   0.79028229  0.81228869  0.27797570
   0.70962515  0.31210818  0.27796985
   0.43016655  0.99248407  0.33406197
   0.06947163  0.49247153  0.33372618
   0.71657224  0.29917230  0.38871466
   0.78346131  0.79958341  0.38863842
   0.21279801  0.18500328  0.41017173
   0.28942525  0.68647740  0.40976026
   0.99871539  0.60362880  0.47020212
   0.99957796  0.39733154  0.48596459
   0.99990889  0.40363825  0.52393948
Direct configuration=     3
   0.00000000  0.50000000  0.00343756
   0.50000000  0.00000000  0.00343756
   0.50000000  0.00000000  0.13566163
   0.00000000  0.50000000  0.13566163
   0.99969795  0.50065509  0.26910035
   0.50037129  0.00066419  0.26908423
   0.48702166  0.00447937  0.39967736
   0.01253380  0.50613410  0.40070191
   0.50780000  0.54900000  0.06954959
   0.99220000  0.04900000  0.06954959
   0.49220000  0.45100000  0.20177366
   0.00780000  0.95100000  0.20177366
   0.51074940  0.54492786  0.33552667
   0.98917880  0.04437797  0.33554739
   0.77440000  0.80660000  0.01359237
   0.72560000  0.30660000  0.01359237
   0.42550000  0.98740000  0.06954959
   0.07450000  0.48740000  0.06954959
   0.72560000  0.30660000  0.12550682
   0.77440000  0.80660000  0.12550682
   0.22560000  0.19340000  0.14581644
   0.27440000  0.69340000  0.14581644
   0.57450000  0.01260000  0.20177366
   0.92550000  0.51260000  0.20177366
   0.28515465  0.69791981  0.25709078
   0.21477866  0.19786671  0.25709422
   0.79107463  0.81028287  0.27777399
   0.70887434  0.31018335  0.27777077
   0.43002154  0.99745915  0.33369540
   0.06977900  0.49745224  0.33351028
   0.71770054  0.30012132  0.38827852
   0.78231795  0.80034796  0.38823649
   0.21306571  0.18827180  0.40935371
   0.28815992  0.68908444  0.40912688
   0.99929183  0.61239242  0.47021232
   0.99976734  0.39095422  0.48664715
   0.99994977  0.40288477  0.52416463
Direct configuration=     4
   0.00000000  0.50000000  0.00343756
   0.50000000  0.00000000  0.00343756
   0.50000000  0.00000000  0.13566163
   0.00000000  0.50000000  0.13566163
   0.99967073  0.50085691  0.26905732
   0.50040950  0.00086745  0.26903864
   0.48664458  0.00468970  0.39961587
   0.01284028  0.50660725  0.40080314
   0.50780000  0.54900000  0.06954959
   0.99220000  0.04900000  0.06954959
   0.49220000  0.45100000  0.20177366
   0.00780000  0.95100000  0.20177366
   0.51093609  0.54504879  0.33548050
   0.98898069  0.04441156  0.33550451
   0.77440000  0.80660000  0.01359237
   0.72560000  0.30660000  0.01359237
   0.42550000  0.98740000  0.06954959
   0.07450000  0.48740000  0.06954959
   0.72560000  0.30660000  0.12550682
   0.77440000  0.80660000  0.12550682
   0.22560000  0.19340000  0.14581644
   0.27440000  0.69340000  0.14581644
   0.57450000  0.01260000  0.20177366
   0.92550000  0.51260000  0.20177366
   0.28459072  0.69817054  0.25724121
   0.21533200  0.19810900  0.25724520
   0.79092003  0.81067424  0.27781335
   0.70902084  0.31055892  0.27780961
   0.43004983  0.99648842  0.33376692
   0.06971903  0.49648041  0.33355241
   0.71748039  0.29993615  0.38836362
   0.78254104  0.80019878  0.38831491
   0.21301348  0.18763405  0.40951332
   0.28840681  0.68857576  0.40925046
   0.99917936  0.61068248  0.47021033
   0.99973039  0.39219855  0.48651397
   0.99994180  0.40303179  0.52412070
Direct configuration=     5
   0.00000000  0.50000000  0.00343756
   0.50000000  0.00000000  0.00343756
   0.50000000  0.00000000  0.13566163
   0.00000000  0.50000000  0.13566163
   0.99957277  0.50217841  0.26904831
   0.50076437  0.00229157  0.26902044
   0.48399344  0.00629159  0.39918037
   0.01474065  0.51055531  0.40158632
   0.50780000  0.54900000  0.06954959
   0.99220000  0.04900000  0.06954959
   0.49220000  0.45100000  0.20177366
   0.00780000  0.95100000  0.20177366
   0.51240121  0.54556020  0.33564860
   0.98754272  0.04459059  0.33565269
   0.77440000  0.80660000  0.01359237
   0.72560000  0.30660000  0.01359237
   0.42550000  0.98740000  0.06954959
   0.07450000  0.48740000  0.06954959
   0.72560000  0.30660000  0.12550682
   0.77440000  0.80660000  0.12550682
   0.22560000  0.19340000  0.14581644
   0.27440000  0.69340000  0.14581644
   0.57450000  0.01260000  0.20177366
   0.92550000  0.51260000  0.20177366
   0.28416882  0.69886347  0.25707798
   0.21583462  0.19864612  0.25705473
   0.78790199  0.81489384  0.27811092
   0.71213427  0.31463809  0.27810779
   0.42891778  0.99525932  0.33336351
   0.07050722  0.49557730  0.33316593
   0.71380372  0.29596587  0.38956811
   0.78631053  0.79748720  0.38931574
   0.21556939  0.17838147  0.41096258
   0.28601285  0.68312250  0.41014417
   0.99948484  0.59999733  0.47081872
   0.99907200  0.39779629  0.48580491
   0.99994560  0.40452407  0.52350675
