66
Lattice="11.033086113260774 5.600493888326504e-08 2.5686178914223706e-08 5.516543105132088 9.554933067924482 1.9872236184885125e-07 0.0 0.0 37.15231387033118" Properties=species:S:1:pos:R:3:tags:I:1:initial_magmoms:R:1:forces:R:3 energy=-379.7605895996094 free_energy=-379.7605895996094 stress="0.008902597359511752 3.0531955100691786e-10 5.123290110170262e-10 3.0531955100691786e-10 0.008902592151190672 -1.827053330118034e-09 5.123290110170262e-10 -1.827053330118034e-09 0.0010984113853949723" pbc="T T T"
Pt      -0.00000001       0.00000000       0.00000000        0       0.00000000      -0.00000055      -0.00000112       0.14688399
Pt       2.75827155       0.00000002       0.00000007        0       0.00000000       0.00090024      -0.00310593       0.13179320
Pt       5.51654309       0.00000006       0.00000007        0       0.00000000       0.00000323      -0.00092902       0.13382888
Pt       8.27481455       0.00000002       0.00000007        0       0.00000000      -0.00090066      -0.00310774       0.13179699
Pt       1.37913578       2.38873328       0.00000009        0       0.00000000      -0.00224015       0.00233168       0.13179561
Pt       4.13740732       2.38873326       0.00000010        0       0.00000000      -0.00031818      -0.00018352       0.13050193
Pt       6.89567885       2.38873330       0.00000010        0       0.00000000       0.00032040      -0.00018320       0.13050011
Pt       9.65395039       2.38873333       0.00000011        0       0.00000000       0.00223507       0.00232996       0.13179427
Pt       2.75827157       4.77746655       0.00000018        0       0.00000000      -0.00080313       0.00046417       0.13382587
Pt       5.51654311       4.77746655       0.00000018        0       0.00000000       0.00000061       0.00036772       0.13050240
Pt       8.27481459       4.77746656       0.00000016        0       0.00000000       0.00080439       0.00046210       0.13382655
Pt      11.03308612       4.77746666       0.00000025        0       0.00000000       0.00000216       0.00666205       0.12004361
Pt       4.13740734       7.16619989       0.00000032        0       0.00000000      -0.00313718       0.00077275       0.13179535
Pt       6.89567883       7.16619981       0.00000025        0       0.00000000       0.00313708       0.00077581       0.13179451
Pt       9.65395036       7.16619988       0.00000022        0       0.00000000       0.00576779      -0.00332983       0.12004459
Pt      12.41222192       7.16619985       0.00000023        0       0.00000000      -0.00576962      -0.00332811       0.12004563
Pt       1.37913581       0.79624445       2.38855938        1       0.00000000      -0.04066714      -0.02347755      -0.08396629
Pt       4.13740731       0.79624445       2.38855951        1       0.00000000      -0.00366475      -0.00180480      -0.16612729
Pt       6.89567888       0.79624443       2.38855941        1       0.00000000       0.00366259      -0.00180778      -0.16612422
Pt       9.65395033       0.79624446       2.38855954        1       0.00000000       0.04066436      -0.02347886      -0.08396728
Pt       2.75827161       3.18497767       2.38855947        1       0.00000000      -0.00339864      -0.00226657      -0.16612154
Pt       5.51654314       3.18497767       2.38855952        1       0.00000000       0.00000141      -0.00000052      -0.15250954
Pt       8.27481457       3.18497770       2.38855940        1       0.00000000       0.00339787      -0.00226777      -0.16612227
Pt      11.03308614       3.18497759       2.38855939        1       0.00000000       0.00000399      -0.03476351      -0.13573486
Pt       4.13740736       5.57371086       2.38855937        1       0.00000000       0.00026643       0.00407804      -0.16611840
Pt       6.89567888       5.57371105       2.38855956        1       0.00000000      -0.00026589       0.00407669      -0.16611989
Pt       9.65395045       5.57371094       2.38855956        1       0.00000000      -0.00445617      -0.00257082      -0.13826679
Pt      12.41222194       5.57371108       2.38855958        1       0.00000000       0.00445177      -0.00257057      -0.13826628
Pt       5.51654310       7.96244423       2.38855960        1       0.00000000      -0.00000075       0.04695311      -0.08396710
Pt       8.27481475       7.96244428       2.38855962        1       0.00000000      -0.03010788       0.01737930      -0.13574149
Pt      11.03308616       7.96244430       2.38855961        1       0.00000000       0.00000447       0.00514140      -0.13826919
Pt      13.79135772       7.96244428       2.38855965        1       0.00000000       0.03010326       0.01738388      -0.13573906
Pt      -0.00000013       1.57105742       4.76352485        2       0.00000000       0.00000462       0.02194554       0.01534727
Pt       2.76212055       1.59471173       4.72539486        2       0.00000000       0.00081679       0.00046553      -0.00057268
Pt       5.51654293       1.59235444       4.72890589        2       0.00000000       0.00000142      -0.01271287       0.00060232
Pt       8.27096559       1.59471077       4.72539532        2       0.00000000      -0.00081624       0.00047650      -0.00057729
Pt       1.37607927       3.97732504       4.72608315        2       0.00000000       0.00108223       0.00916313      -0.00878862
Pt       4.13728916       3.98129001       4.72890689        2       0.00000000      -0.01099839       0.00635964       0.00059305
Pt       6.89579710       3.98129020       4.72890637        2       0.00000000       0.01100258       0.00635574       0.00059843
Pt       9.65700798       3.97732482       4.72608192        2       0.00000000      -0.00109669       0.00916581      -0.00878139
Pt       2.76011748       6.37455098       4.72608139        2       0.00000000      -0.00738308      -0.00551501      -0.00877918
Pt       5.51654316       6.36551032       4.72539671        2       0.00000000      -0.00000902      -0.00094521      -0.00058460
Pt       8.27296802       6.37455074       4.72608198        2       0.00000000       0.00739559      -0.00552390      -0.00877997
Pt      11.03308624       6.36995536       4.72647744        2       0.00000000      -0.00000013       0.00000228       0.00067839
Pt       4.15596722       8.76940394       4.76352552        2       0.00000000      -0.01900501      -0.01097828       0.01534388
Pt       6.87711907       8.76940392       4.76352436        2       0.00000000       0.01900278      -0.01096414       0.01534925
Pt       9.64904625       8.75799069       4.72608246        2       0.00000000       0.00848430      -0.00364763      -0.00877650
Pt      12.41712508       8.75799042       4.72608219        2       0.00000000      -0.00847733      -0.00365056      -0.00878192
Pt       0.00000057       0.00000070       7.18807348        3       0.00000000      -0.00000244      -0.00000098       0.01711649
Pt       2.78632958       0.00296388       7.07237563        3       0.00000000      -0.00167509      -0.00065247       0.01216820
Pt       5.51654289      -0.00020597       7.08567239        3       0.00000000       0.00000100       0.00074303       0.00496191
Pt       8.24675608       0.00296337       7.07237550        3       0.00000000       0.00167450      -0.00064753       0.01217228
Pt       1.39573228       2.41155074       7.07237484        3       0.00000000      -0.00140643      -0.00112477       0.01217413
Pt       4.14060914       2.39058258       7.08802253        3       0.00000000       0.01154384       0.00666105       0.00318930
Pt       6.89247726       2.39058263       7.08802178        3       0.00000000      -0.01154299       0.00666114       0.00319415
Pt       9.63735371       2.41155234       7.07237405        3       0.00000000       0.00140941      -0.00113733       0.01217780
Pt       2.75809340       4.77757218       7.08567485        3       0.00000000       0.00064170      -0.00035559       0.00490776
Pt       5.51654378       4.77376699       7.08802265        3       0.00000000      -0.00000300      -0.01334658       0.00324097
Pt       8.27499302       4.77757147       7.08567512        3       0.00000000      -0.00064285      -0.00034915       0.00490046
Pt      11.03308630       4.78053094       7.08459006        3       0.00000000       0.00000472       0.01493491       0.00514382
Pt       4.12594334       7.14041799       7.07237457        3       0.00000000       0.00028544       0.00178509       0.01217470
Pt       6.90714172       7.14041902       7.07237430        3       0.00000000      -0.00027632       0.00178005       0.01217654
Pt       9.65660542       7.16466600       7.08459061        3       0.00000000       0.01295391      -0.00747180       0.00508532
Pt      12.40956744       7.16466657       7.08458985        3       0.00000000      -0.01296571      -0.00747724       0.00508800
O       -0.00000047       0.00000017       9.15899194        0       0.00000000      -0.00000080       0.00000034      -0.02858645
H       -0.00000009       0.00000001      10.13486949        0       0.00000000       0.00000025      -0.00000001       0.03701161
