102
Lattice="13.791603039053763 -1.1704809832993197e-07 6.703336656169091e-07 6.895801418160254 11.94387930607876 1.6811462701697e-06 0.0 0.0 37.15135978955718" Properties=species:S:1:pos:R:3:tags:I:1:initial_magmoms:R:1:forces:R:3 energy=-588.1805419921875 free_energy=-588.1805419921875 stress="0.009320353817183057 -2.4629248283308147e-09 2.2684351525861804e-09 -2.4629248283308147e-09 0.009320364233825217 9.121754167492947e-09 2.2684351525861804e-09 9.121754167492947e-09 0.0013583150708261344" pbc="T T T"
Pt       0.00000004       0.00000003       0.00000000        0       0.00000000      -0.00000025      -0.00000193       0.14719486
Pt       2.75832052       0.00000002       0.00000029        0       0.00000000       0.00093939      -0.00315874       0.13171259
Pt       5.51664114      -0.00000007       0.00000030        0       0.00000000      -0.00168326       0.00026751       0.13319555
Pt       8.27496177      -0.00000001       0.00000044        0       0.00000000       0.00168607       0.00026918       0.13319498
Pt      11.03328250      -0.00000006       0.00000064        0       0.00000000      -0.00094033      -0.00315851       0.13171384
Pt       1.37916020       2.38877583       0.00000036        0       0.00000000      -0.00226312       0.00239359       0.13171309
Pt       4.13748100       2.38877577       0.00000041        0       0.00000000      -0.00026175      -0.00014669       0.13222164
Pt       6.89580149       2.38877583       0.00000074        0       0.00000000      -0.00000016      -0.00012081       0.13215449
Pt       9.65412211       2.38877585       0.00000086        0       0.00000000       0.00025836      -0.00014942       0.13222104
Pt      12.41244274       2.38877574       0.00000096        0       0.00000000       0.00226258       0.00239534       0.13171396
Pt       2.75832046       4.77755174       0.00000071        0       0.00000000      -0.00060368      -0.00159315       0.13319668
Pt       5.51664125       4.77755168       0.00000096        0       0.00000000      -0.00010571       0.00006144       0.13215739
Pt       8.27496176       4.77755177       0.00000087        0       0.00000000       0.00010659       0.00006104       0.13215902
Pt      11.03328240       4.77755159       0.00000113        0       0.00000000       0.00061120      -0.00159396       0.13319403
Pt      13.79160305       4.77755159       0.00000129        0       0.00000000      -0.00000154       0.00528155       0.12299082
Pt       4.13748079       7.16632756       0.00000111        0       0.00000000       0.00106957       0.00132754       0.13319853
Pt       6.89580146       7.16632759       0.00000109        0       0.00000000       0.00000173       0.00030095       0.13222328
Pt       9.65412208       7.16632755       0.00000130        0       0.00000000      -0.00107720       0.00132694       0.13319764
Pt      12.41244264       7.16632749       0.00000147        0       0.00000000      -0.00034833      -0.00020146       0.13363975
Pt      15.17076330       7.16632753       0.00000168        0       0.00000000       0.00035362      -0.00020163       0.13364100
Pt       5.51664133       9.55510348       0.00000140        0       0.00000000      -0.00320614       0.00076484       0.13171488
Pt       8.27496170       9.55510347       0.00000156        0       0.00000000       0.00320532       0.00076589       0.13171440
Pt      11.03328233       9.55510332       0.00000163        0       0.00000000       0.00457328      -0.00263920       0.12299073
Pt      13.79160294       9.55510332       0.00000180        0       0.00000000      -0.00000163       0.00040608       0.13363573
Pt      16.54992351       9.55510324       0.00000197        0       0.00000000      -0.00456742      -0.00264070       0.12299073
Pt       1.37916046       0.79625891       2.38854322        1       0.00000000      -0.03858025      -0.02227837      -0.06700350
Pt       4.13748118       0.79625904       2.38854321        1       0.00000000      -0.00006004       0.00131848      -0.14573625
Pt       6.89580177       0.79625874       2.38854312        1       0.00000000       0.00000105       0.00111368      -0.13362682
Pt       9.65412216       0.79625869       2.38854340        1       0.00000000       0.00005667       0.00132143      -0.14573897
Pt      12.41244283       0.79625878       2.38854371        1       0.00000000       0.03857911      -0.02227796      -0.06700372
Pt       2.75832072       3.18503486       2.38854320        1       0.00000000       0.00111558      -0.00070692      -0.14573812
Pt       5.51664121       3.18503462       2.38854355        1       0.00000000       0.00006615       0.00004007      -0.12620080
Pt       8.27496190       3.18503470       2.38854341        1       0.00000000      -0.00006361       0.00003795      -0.12619641
Pt      11.03328255       3.18503481       2.38854380        1       0.00000000      -0.00111406      -0.00071261      -0.14573920
Pt      13.79160321       3.18503467       2.38854404        1       0.00000000      -0.00000103      -0.03582027      -0.12032031
Pt       4.13748100       5.57381065       2.38854369        1       0.00000000       0.00095895      -0.00055783      -0.13363212
Pt       6.89580173       5.57381054       2.38854381        1       0.00000000       0.00000228      -0.00007414      -0.12620214
Pt       9.65412207       5.57381056       2.38854394        1       0.00000000      -0.00096930      -0.00055874      -0.13363230
Pt      12.41244279       5.57381062       2.38854397        1       0.00000000       0.00308896      -0.00294863      -0.12885591
Pt      15.17076346       5.57381055       2.38854403        1       0.00000000      -0.00308594      -0.00294799      -0.12884963
Pt       5.51664151       7.96258644       2.38854405        1       0.00000000       0.00116813      -0.00061180      -0.14573777
Pt       8.27496191       7.96258639       2.38854430        1       0.00000000      -0.00116980      -0.00061216      -0.14574173
Pt      11.03328242       7.96258650       2.38854453        1       0.00000000      -0.00101373       0.00414511      -0.12886880
Pt      13.79160307       7.96258652       2.38854447        1       0.00000000      -0.00000128      -0.00001004      -0.13141011
Pt      16.54992363       7.96258639       2.38854479        1       0.00000000       0.00102199       0.00414615      -0.12887086
Pt       6.89580146      10.35136231       2.38854445        1       0.00000000       0.00000128       0.04455145      -0.06700727
Pt       9.65412211      10.35136230       2.38854437        1       0.00000000      -0.03102273       0.01791014      -0.12031558
Pt      12.41244281      10.35136234       2.38854469        1       0.00000000      -0.00409967      -0.00119540      -0.12886268
Pt      15.17076345      10.35136224       2.38854446        1       0.00000000       0.00410121      -0.00119441      -0.12885630
Pt      17.92908397      10.35136222       2.38854460        1       0.00000000       0.03101548       0.01790970      -0.12031488
Pt       0.00000094       1.57747150       4.76489686        2       0.00000000      -0.00000853      -0.03079671      -0.00829651
Pt       2.76375478       1.59565558       4.72823977        2       0.00000000      -0.00412259      -0.00238756      -0.00041911
Pt       5.51849121       1.59198086       4.73401900        2       0.00000000      -0.00019176       0.00395085      -0.00613275
Pt       8.27311199       1.59197979       4.73401859        2       0.00000000       0.00018533       0.00396317      -0.00613672
Pt      11.02784848       1.59565464       4.72824042        2       0.00000000       0.00413215      -0.00238329      -0.00042188
Pt       1.37727746       3.98095527       4.72903029        2       0.00000000       0.00119757       0.00038648       0.00463337
Pt       4.13794086       3.98316322       4.73401878        2       0.00000000       0.00332175      -0.00212795      -0.00613290
Pt       6.89580134       3.98129368       4.73505550        2       0.00000000       0.00001046      -0.00000001      -0.00772539
Pt       9.65366388       3.98316302       4.73401907        2       0.00000000      -0.00334247      -0.00213312      -0.00613464
Pt      12.41432492       3.98095548       4.72903174        2       0.00000000      -0.00118363       0.00037280       0.00463930
Pt       2.75718148       6.37072823       4.73265168        2       0.00000000      -0.00044473       0.00023644      -0.00722720
Pt       5.51525157       6.36873687       4.73401903        2       0.00000000       0.00351906      -0.00181528      -0.00613220
Pt       8.27635262       6.36873726       4.73401909        2       0.00000000      -0.00352400      -0.00182815      -0.00613321
Pt      11.03442247       6.37072741       4.73265094        2       0.00000000       0.00043711       0.00025069      -0.00722550
Pt      13.79160344       6.37089330       4.73379032        2       0.00000000       0.00000780       0.00347856      -0.00770578
Pt       4.13683208       8.76064470       4.72903131        2       0.00000000       0.00028194      -0.00121594       0.00464088
Pt       6.89580182       8.75257055       4.72824174        2       0.00000000      -0.00000074       0.00476768      -0.00042427
Pt       9.65477151       8.76064373       4.72903303        2       0.00000000      -0.00027694      -0.00121215       0.00463280
Pt      12.41315654       8.75843321       4.73378426        2       0.00000000       0.00302087      -0.00173906      -0.00765561
Pt      15.17005035       8.75843258       4.73378505        2       0.00000000      -0.00303057      -0.00172926      -0.00765847
Pt       5.52967219      11.15514407       4.76489916        2       0.00000000       0.02666083       0.01540141      -0.00829896
Pt       8.26193195      11.15514375       4.76489810        2       0.00000000      -0.02667029       0.01539844      -0.00829667
Pt      11.03204859      11.14615974       4.72903311        2       0.00000000       0.00092322       0.00084282       0.00463627
Pt      13.79160234      11.14630507       4.73265438        2       0.00000000       0.00000711      -0.00051366      -0.00724578
Pt      16.55115722      11.14615986       4.72903195        2       0.00000000      -0.00091610       0.00083469       0.00463718
Pt      -0.00000038       0.00000058       7.16259758        3       0.00000000      -0.00000286       0.00000178       0.03048620
Pt       2.79264106       0.00322041       7.07576640        3       0.00000000      -0.00695900       0.00070519      -0.00551900
Pt       5.52755162      -0.00020858       7.09445196        3       0.00000000      -0.01224453      -0.00045252      -0.01035058
Pt       8.26405152      -0.00020869       7.09445067        3       0.00000000       0.01224245      -0.00045503      -0.01034513
Pt      10.99896064       0.00322084       7.07576600        3       0.00000000       0.00697429       0.00069637      -0.00551423
Pt       1.39910951       2.41688993       7.07576508        3       0.00000000      -0.00287514      -0.00639203      -0.00550649
Pt       4.14534395       2.39331552       7.09382614        3       0.00000000      -0.00818767      -0.00472807      -0.01186812
Pt       6.89580167       2.39079776       7.09562394        3       0.00000000      -0.00000008      -0.00138558      -0.00464115
Pt       9.64625924       2.39331592       7.09382647        3       0.00000000       0.00818902      -0.00472642      -0.01186845
Pt      12.39249373       2.41688867       7.07576695        3       0.00000000       0.00287055      -0.00638115      -0.00551888
Pt       2.76359455       4.78710353       7.09445285        3       0.00000000      -0.00650682      -0.01035209      -0.01035738
Pt       5.51839143       4.77654238       7.09562174        3       0.00000000      -0.00119972       0.00069041      -0.00463030
Pt       8.27321186       4.77654271       7.09562363        3       0.00000000       0.00119923       0.00068651      -0.00464141
Pt      11.02800881       4.78710523       7.09445220        3       0.00000000       0.00651768      -0.01036965      -0.01035056
Pt      13.79160360       4.78532189       7.09257784        3       0.00000000      -0.00000636      -0.01133290      -0.01582292
Pt       4.13184538       7.15698458       7.09445278        3       0.00000000       0.00571358       0.01082157      -0.01035458
Pt       6.89580163       7.15724913       7.09382633        3       0.00000000       0.00000181       0.00945564      -0.01186672
Pt       9.65975842       7.15698378       7.09445221        3       0.00000000      -0.00571988       0.01083022      -0.01034844
Pt      12.41393176       7.16718829       7.09493080        3       0.00000000      -0.00044944      -0.00025755      -0.00384697
Pt      15.16927418       7.16718778       7.09493235        3       0.00000000       0.00045579      -0.00025681      -0.00385603
Pt       5.50226934       9.52377082       7.07576742        3       0.00000000       0.00408913       0.00568114      -0.00551608
Pt       8.28933400       9.52377127       7.07576773        3       0.00000000      -0.00409240       0.00567710      -0.00551638
Pt      11.04001219       9.55121855       7.09257887        3       0.00000000      -0.00981597       0.00566287      -0.01583046
Pt      13.79160354       9.55338393       7.09493160        3       0.00000000       0.00000121       0.00051269      -0.00385800
Pt      16.54319545       9.55121932       7.09257822        3       0.00000000       0.00980977       0.00566404      -0.01582941
O        0.00000072       0.00000018       9.12915457        0       0.00000000       0.00000042      -0.00000001       0.04321808
H        0.00000004      -0.00000001      10.10502386        0       0.00000000      -0.00000029       0.00000025       0.03841886
