   2   2   1   0
  0.4000000E+04  0.2000000E-08  0.2000000E-08  0.2000000E-08  0.1500000E-15
  1.000000000000000E-004
  CAR 
 unknown system                          
      2.34029578    -26.84885563  301     -8.12097993      1.00000000
    -26.849  0.0000E+00  0.0000E+00
    -26.752  0.0000E+00  0.0000E+00
    -26.654  0.0000E+00  0.0000E+00
    -26.557  0.0000E+00  0.0000E+00
    -26.460  0.0000E+00  0.0000E+00
    -26.362  0.0000E+00  0.0000E+00
    -26.265  0.0000E+00  0.0000E+00
    -26.168  0.0000E+00  0.0000E+00
    -26.070  0.0000E+00  0.0000E+00
    -25.973  0.3880E-14  0.3775E-15
    -25.876  0.7791E-12  0.7618E-13
    -25.779  0.9977E-10  0.9784E-11
    -25.681  0.8023E-08  0.7904E-09
    -25.584  0.4055E-06  0.4025E-07
    -25.487  0.1290E-04  0.1295E-05
    -25.389  0.2586E-03  0.2645E-04
    -25.292  0.3270E-02  0.3446E-03
    -25.195  0.2613E-01  0.2887E-02
    -25.098  0.1321E+00  0.1574E-01
    -25.000  0.4230E+00  0.5690E-01
    -24.903  0.8588E+00  0.1405E+00
    -24.806  0.1106E+01  0.2480E+00
    -24.708  0.9033E+00  0.3359E+00
    -24.611  0.4681E+00  0.3815E+00
    -24.514  0.1538E+00  0.3964E+00
    -24.416  0.3201E-01  0.3996E+00
    -24.319  0.4214E-02  0.4000E+00
    -24.222  0.3507E-03  0.4000E+00
    -24.125  0.1842E-04  0.4000E+00
    -24.027  0.6095E-06  0.4000E+00
    -23.930  0.1270E-07  0.4000E+00
    -23.833  0.1663E-09  0.4000E+00
    -23.735  0.1367E-11  0.4000E+00
    -23.638  0.7303E-14  0.4000E+00
    -23.541  0.0000E+00  0.4000E+00
    -23.443  0.0000E+00  0.4000E+00
    -23.346  0.0000E+00  0.4000E+00
    -23.249  0.0000E+00  0.4000E+00
    -23.152  0.0000E+00  0.4000E+00
    -23.054  0.0000E+00  0.4000E+00
    -22.957  0.0000E+00  0.4000E+00
    -22.860  0.0000E+00  0.4000E+00
    -22.762  0.0000E+00  0.4000E+00
    -22.665  0.0000E+00  0.4000E+00
    -22.568  0.0000E+00  0.4000E+00
    -22.470  0.0000E+00  0.4000E+00
    -22.373  0.0000E+00  0.4000E+00
    -22.276  0.0000E+00  0.4000E+00
    -22.179  0.0000E+00  0.4000E+00
    -22.081  0.0000E+00  0.4000E+00
    -21.984  0.0000E+00  0.4000E+00
    -21.887  0.0000E+00  0.4000E+00
    -21.789  0.0000E+00  0.4000E+00
    -21.692  0.0000E+00  0.4000E+00
    -21.595  0.0000E+00  0.4000E+00
    -21.498  0.0000E+00  0.4000E+00
    -21.400  0.0000E+00  0.4000E+00
    -21.303  0.0000E+00  0.4000E+00
    -21.206  0.0000E+00  0.4000E+00
    -21.108  0.0000E+00  0.4000E+00
    -21.011  0.0000E+00  0.4000E+00
    -20.914  0.0000E+00  0.4000E+00
    -20.816  0.0000E+00  0.4000E+00
    -20.719  0.0000E+00  0.4000E+00
    -20.622  0.0000E+00  0.4000E+00
    -20.525  0.0000E+00  0.4000E+00
    -20.427  0.0000E+00  0.4000E+00
    -20.330  0.0000E+00  0.4000E+00
    -20.233  0.0000E+00  0.4000E+00
    -20.135  0.0000E+00  0.4000E+00
    -20.038  0.0000E+00  0.4000E+00
    -19.941  0.0000E+00  0.4000E+00
    -19.843  0.0000E+00  0.4000E+00
    -19.746  0.0000E+00  0.4000E+00
    -19.649  0.0000E+00  0.4000E+00
    -19.552  0.0000E+00  0.4000E+00
    -19.454  0.0000E+00  0.4000E+00
    -19.357  0.0000E+00  0.4000E+00
    -19.260  0.0000E+00  0.4000E+00
    -19.162  0.0000E+00  0.4000E+00
    -19.065  0.0000E+00  0.4000E+00
    -18.968  0.0000E+00  0.4000E+00
    -18.870  0.0000E+00  0.4000E+00
    -18.773  0.0000E+00  0.4000E+00
    -18.676  0.0000E+00  0.4000E+00
    -18.579  0.0000E+00  0.4000E+00
    -18.481  0.0000E+00  0.4000E+00
    -18.384  0.0000E+00  0.4000E+00
    -18.287  0.0000E+00  0.4000E+00
    -18.189  0.0000E+00  0.4000E+00
    -18.092  0.0000E+00  0.4000E+00
    -17.995  0.0000E+00  0.4000E+00
    -17.898  0.0000E+00  0.4000E+00
    -17.800  0.0000E+00  0.4000E+00
    -17.703  0.0000E+00  0.4000E+00
    -17.606  0.0000E+00  0.4000E+00
    -17.508  0.0000E+00  0.4000E+00
    -17.411  0.0000E+00  0.4000E+00
    -17.314  0.0000E+00  0.4000E+00
    -17.216  0.0000E+00  0.4000E+00
    -17.119  0.0000E+00  0.4000E+00
    -17.022  0.0000E+00  0.4000E+00
    -16.925  0.0000E+00  0.4000E+00
    -16.827  0.0000E+00  0.4000E+00
    -16.730  0.0000E+00  0.4000E+00
    -16.633  0.0000E+00  0.4000E+00
    -16.535  0.0000E+00  0.4000E+00
    -16.438  0.0000E+00  0.4000E+00
    -16.341  0.0000E+00  0.4000E+00
    -16.243  0.0000E+00  0.4000E+00
    -16.146  0.0000E+00  0.4000E+00
    -16.049  0.0000E+00  0.4000E+00
    -15.952  0.0000E+00  0.4000E+00
    -15.854  0.0000E+00  0.4000E+00
    -15.757  0.0000E+00  0.4000E+00
    -15.660  0.0000E+00  0.4000E+00
    -15.562  0.0000E+00  0.4000E+00
    -15.465  0.0000E+00  0.4000E+00
    -15.368  0.0000E+00  0.4000E+00
    -15.270  0.0000E+00  0.4000E+00
    -15.173  0.0000E+00  0.4000E+00
    -15.076  0.0000E+00  0.4000E+00
    -14.979  0.0000E+00  0.4000E+00
    -14.881  0.0000E+00  0.4000E+00
    -14.784  0.0000E+00  0.4000E+00
    -14.687  0.0000E+00  0.4000E+00
    -14.589  0.0000E+00  0.4000E+00
    -14.492  0.0000E+00  0.4000E+00
    -14.395  0.0000E+00  0.4000E+00
    -14.298  0.0000E+00  0.4000E+00
    -14.200  0.0000E+00  0.4000E+00
    -14.103  0.0000E+00  0.4000E+00
    -14.006  0.0000E+00  0.4000E+00
    -13.908  0.0000E+00  0.4000E+00
    -13.811  0.0000E+00  0.4000E+00
    -13.714  0.0000E+00  0.4000E+00
    -13.616  0.0000E+00  0.4000E+00
    -13.519  0.0000E+00  0.4000E+00
    -13.422  0.0000E+00  0.4000E+00
    -13.325  0.0000E+00  0.4000E+00
    -13.227  0.0000E+00  0.4000E+00
    -13.130  0.0000E+00  0.4000E+00
    -13.033  0.0000E+00  0.4000E+00
    -12.935  0.0000E+00  0.4000E+00
    -12.838  0.0000E+00  0.4000E+00
    -12.741  0.0000E+00  0.4000E+00
    -12.643  0.0000E+00  0.4000E+00
    -12.546  0.1369E-14  0.4000E+00
    -12.449  0.2946E-12  0.4000E+00
    -12.352  0.4121E-10  0.4000E+00
    -12.254  0.3619E-08  0.4000E+00
    -12.157  0.1997E-06  0.4000E+00
    -12.060  0.6936E-05  0.4000E+00
    -11.962  0.1517E-03  0.4000E+00
    -11.865  0.2094E-02  0.4002E+00
    -11.768  0.1825E-01  0.4020E+00
    -11.670  0.1006E+00  0.4118E+00
    -11.573  0.3514E+00  0.4460E+00
    -11.476  0.7776E+00  0.5216E+00
    -11.379  0.1091E+01  0.6278E+00
    -11.281  0.9720E+00  0.7224E+00
    -11.184  0.5491E+00  0.7758E+00
    -11.087  0.1967E+00  0.7950E+00
    -10.989  0.4464E-01  0.7993E+00
    -10.892  0.6411E-02  0.7999E+00
    -10.795  0.5821E-03  0.8000E+00
    -10.698  0.3336E-04  0.8000E+00
    -10.600  0.1205E-05  0.8000E+00
    -10.503  0.2741E-07  0.8000E+00
    -10.406  0.3920E-09  0.8000E+00
    -10.308  0.3521E-11  0.8000E+00
    -10.211  0.2008E-13  0.8000E+00
    -10.114  0.0000E+00  0.8000E+00
    -10.016  0.0000E+00  0.8000E+00
     -9.919  0.0000E+00  0.8000E+00
     -9.822  0.0000E+00  0.8000E+00
     -9.725  0.0000E+00  0.8000E+00
     -9.627  0.0000E+00  0.8000E+00
     -9.530  0.0000E+00  0.8000E+00
     -9.433  0.0000E+00  0.8000E+00
     -9.335  0.1050E-13  0.8000E+00
     -9.238  0.2057E-11  0.8000E+00
     -9.141  0.2568E-09  0.8000E+00
     -9.043  0.2013E-07  0.8000E+00
     -8.946  0.9920E-06  0.8000E+00
     -8.849  0.3077E-04  0.8000E+00
     -8.752  0.6013E-03  0.8001E+00
     -8.654  0.7416E-02  0.8008E+00
     -8.557  0.5779E-01  0.8064E+00
     -8.460  0.2850E+00  0.8341E+00
     -8.362  0.8900E+00  0.9207E+00
     -8.265  0.1762E+01  0.1092E+01
     -8.168  0.2213E+01  0.1307E+01
     -8.071  0.1763E+01  0.1479E+01
     -7.973  0.8913E+00  0.1566E+01
     -7.876  0.2856E+00  0.1594E+01
     -7.779  0.5797E-01  0.1599E+01
     -7.681  0.7444E-02  0.1600E+01
     -7.584  0.6040E-03  0.1600E+01
     -7.487  0.3093E-04  0.1600E+01
     -7.389  0.9980E-06  0.1600E+01
     -7.292  0.2027E-07  0.1600E+01
     -7.195  0.2587E-09  0.1600E+01
     -7.098  0.2074E-11  0.1600E+01
     -7.000  0.1095E-13  0.1600E+01
     -6.903  0.0000E+00  0.1600E+01
     -6.806  0.0000E+00  0.1600E+01
     -6.708  0.0000E+00  0.1600E+01
     -6.611  0.0000E+00  0.1600E+01
     -6.514  0.0000E+00  0.1600E+01
     -6.416  0.0000E+00  0.1600E+01
     -6.319  0.0000E+00  0.1600E+01
     -6.222  0.0000E+00  0.1600E+01
     -6.125  0.0000E+00  0.1600E+01
     -6.027  0.0000E+00  0.1600E+01
     -5.930  0.0000E+00  0.1600E+01
     -5.833  0.0000E+00  0.1600E+01
     -5.735  0.0000E+00  0.1600E+01
     -5.638  0.0000E+00  0.1600E+01
     -5.541  0.0000E+00  0.1600E+01
     -5.443  0.0000E+00  0.1600E+01
     -5.346  0.0000E+00  0.1600E+01
     -5.249  0.0000E+00  0.1600E+01
     -5.152  0.0000E+00  0.1600E+01
     -5.054  0.0000E+00  0.1600E+01
     -4.957  0.0000E+00  0.1600E+01
     -4.860  0.0000E+00  0.1600E+01
     -4.762  0.0000E+00  0.1600E+01
     -4.665  0.0000E+00  0.1600E+01
     -4.568  0.0000E+00  0.1600E+01
     -4.471  0.0000E+00  0.1600E+01
     -4.373  0.0000E+00  0.1600E+01
     -4.276  0.0000E+00  0.1600E+01
     -4.179  0.0000E+00  0.1600E+01
     -4.081  0.0000E+00  0.1600E+01
     -3.984  0.0000E+00  0.1600E+01
     -3.887  0.0000E+00  0.1600E+01
     -3.789  0.0000E+00  0.1600E+01
     -3.692  0.0000E+00  0.1600E+01
     -3.595  0.0000E+00  0.1600E+01
     -3.498  0.0000E+00  0.1600E+01
     -3.400  0.0000E+00  0.1600E+01
     -3.303  0.0000E+00  0.1600E+01
     -3.206  0.0000E+00  0.1600E+01
     -3.108  0.0000E+00  0.1600E+01
     -3.011  0.0000E+00  0.1600E+01
     -2.914  0.0000E+00  0.1600E+01
     -2.816  0.0000E+00  0.1600E+01
     -2.719  0.0000E+00  0.1600E+01
     -2.622  0.0000E+00  0.1600E+01
     -2.525  0.0000E+00  0.1600E+01
     -2.427  0.0000E+00  0.1600E+01
     -2.330  0.0000E+00  0.1600E+01
     -2.233  0.0000E+00  0.1600E+01
     -2.135  0.0000E+00  0.1600E+01
     -2.038  0.0000E+00  0.1600E+01
     -1.941  0.1597E-14  0.1600E+01
     -1.843  0.3567E-12  0.1600E+01
     -1.746  0.4903E-10  0.1600E+01
     -1.649  0.4232E-08  0.1600E+01
     -1.552  0.2296E-06  0.1600E+01
     -1.454  0.7838E-05  0.1600E+01
     -1.357  0.1686E-03  0.1600E+01
     -1.260  0.2287E-02  0.1600E+01
     -1.162  0.1960E-01  0.1602E+01
     -1.065  0.1063E+00  0.1612E+01
     -0.968  0.3648E+00  0.1648E+01
     -0.871  0.7938E+00  0.1725E+01
     -0.773  0.1096E+01  0.1832E+01
     -0.676  0.9594E+00  0.1925E+01
     -0.579  0.5330E+00  0.1977E+01
     -0.481  0.1887E+00  0.1995E+01
     -0.384  0.5175E-01  0.2000E+01
     -0.287  0.6865E-01  0.2007E+01
     -0.189  0.2552E+00  0.2032E+01
     -0.092  0.6748E+00  0.2098E+01
      0.005  0.1259E+01  0.2220E+01
      0.102  0.1986E+01  0.2413E+01
      0.200  0.3106E+01  0.2716E+01
      0.297  0.4301E+01  0.3134E+01
      0.394  0.4335E+01  0.3556E+01
      0.492  0.2899E+01  0.3838E+01
      0.589  0.1251E+01  0.3960E+01
      0.686  0.3459E+00  0.3993E+01
      0.784  0.6110E-01  0.3999E+01
      0.881  0.6888E-02  0.4000E+01
      0.978  0.4950E-03  0.4000E+01
      1.075  0.2265E-04  0.4000E+01
      1.173  0.6587E-06  0.4000E+01
      1.270  0.1216E-07  0.4000E+01
      1.367  0.1422E-09  0.4000E+01
      1.465  0.1054E-11  0.4000E+01
      1.562  0.4108E-14  0.4000E+01
      1.659  0.0000E+00  0.4000E+01
      1.757  0.0000E+00  0.4000E+01
      1.854  0.0000E+00  0.4000E+01
      1.951  0.0000E+00  0.4000E+01
      2.048  0.0000E+00  0.4000E+01
      2.146  0.0000E+00  0.4000E+01
      2.243  0.0000E+00  0.4000E+01
      2.340  0.0000E+00  0.4000E+01
      2.34029578    -26.84885563  301     -8.12097993      1.00000000
    -26.849  0.0000E+00  0.0000E+00  0.0000E+00
    -26.752  0.0000E+00  0.0000E+00  0.0000E+00
    -26.654  0.0000E+00  0.0000E+00  0.0000E+00
    -26.557  0.0000E+00  0.0000E+00  0.0000E+00
    -26.460  0.0000E+00  0.0000E+00  0.0000E+00
    -26.362  0.0000E+00  0.0000E+00  0.0000E+00
    -26.265  0.0000E+00  0.0000E+00  0.0000E+00
    -26.168  0.0000E+00  0.0000E+00  0.0000E+00
    -26.070  0.0000E+00  0.0000E+00  0.0000E+00
    -25.973  0.1414E-13  0.6966E-15  0.0000E+00
    -25.876  0.2840E-11  0.1399E-12  0.0000E+00
    -25.779  0.3637E-09  0.1791E-10  0.0000E+00
    -25.681  0.2925E-07  0.1441E-08  0.0000E+00
    -25.584  0.1478E-05  0.7281E-07  0.0000E+00
    -25.487  0.4703E-04  0.2316E-05  0.0000E+00
    -25.389  0.9426E-03  0.4642E-04  0.0000E+00
    -25.292  0.1192E-01  0.5872E-03  0.0000E+00
    -25.195  0.9527E-01  0.4692E-02  0.0000E+00
    -25.098  0.4817E+00  0.2372E-01  0.0000E+00
    -25.000  0.1542E+01  0.7596E-01  0.0000E+00
    -24.903  0.3131E+01  0.1542E+00  0.0000E+00
    -24.806  0.4031E+01  0.1985E+00  0.0000E+00
    -24.708  0.3293E+01  0.1622E+00  0.0000E+00
    -24.611  0.1707E+01  0.8405E-01  0.0000E+00
    -24.514  0.5607E+00  0.2761E-01  0.0000E+00
    -24.416  0.1167E+00  0.5747E-02  0.0000E+00
    -24.319  0.1536E-01  0.7567E-03  0.0000E+00
    -24.222  0.1279E-02  0.6297E-04  0.0000E+00
    -24.125  0.6714E-04  0.3307E-05  0.0000E+00
    -24.027  0.2222E-05  0.1094E-06  0.0000E+00
    -23.930  0.4628E-07  0.2280E-08  0.0000E+00
    -23.833  0.6061E-09  0.2985E-10  0.0000E+00
    -23.735  0.4984E-11  0.2455E-12  0.0000E+00
    -23.638  0.2662E-13  0.1311E-14  0.0000E+00
    -23.541  0.0000E+00  0.0000E+00  0.0000E+00
    -23.443  0.0000E+00  0.0000E+00  0.0000E+00
    -23.346  0.0000E+00  0.0000E+00  0.0000E+00
    -23.249  0.0000E+00  0.0000E+00  0.0000E+00
    -23.152  0.0000E+00  0.0000E+00  0.0000E+00
    -23.054  0.0000E+00  0.0000E+00  0.0000E+00
    -22.957  0.0000E+00  0.0000E+00  0.0000E+00
    -22.860  0.0000E+00  0.0000E+00  0.0000E+00
    -22.762  0.0000E+00  0.0000E+00  0.0000E+00
    -22.665  0.0000E+00  0.0000E+00  0.0000E+00
    -22.568  0.0000E+00  0.0000E+00  0.0000E+00
    -22.470  0.0000E+00  0.0000E+00  0.0000E+00
    -22.373  0.0000E+00  0.0000E+00  0.0000E+00
    -22.276  0.0000E+00  0.0000E+00  0.0000E+00
    -22.179  0.0000E+00  0.0000E+00  0.0000E+00
    -22.081  0.0000E+00  0.0000E+00  0.0000E+00
    -21.984  0.0000E+00  0.0000E+00  0.0000E+00
    -21.887  0.0000E+00  0.0000E+00  0.0000E+00
    -21.789  0.0000E+00  0.0000E+00  0.0000E+00
    -21.692  0.0000E+00  0.0000E+00  0.0000E+00
    -21.595  0.0000E+00  0.0000E+00  0.0000E+00
    -21.498  0.0000E+00  0.0000E+00  0.0000E+00
    -21.400  0.0000E+00  0.0000E+00  0.0000E+00
    -21.303  0.0000E+00  0.0000E+00  0.0000E+00
    -21.206  0.0000E+00  0.0000E+00  0.0000E+00
    -21.108  0.0000E+00  0.0000E+00  0.0000E+00
    -21.011  0.0000E+00  0.0000E+00  0.0000E+00
    -20.914  0.0000E+00  0.0000E+00  0.0000E+00
    -20.816  0.0000E+00  0.0000E+00  0.0000E+00
    -20.719  0.0000E+00  0.0000E+00  0.0000E+00
    -20.622  0.0000E+00  0.0000E+00  0.0000E+00
    -20.525  0.0000E+00  0.0000E+00  0.0000E+00
    -20.427  0.0000E+00  0.0000E+00  0.0000E+00
    -20.330  0.0000E+00  0.0000E+00  0.0000E+00
    -20.233  0.0000E+00  0.0000E+00  0.0000E+00
    -20.135  0.0000E+00  0.0000E+00  0.0000E+00
    -20.038  0.0000E+00  0.0000E+00  0.0000E+00
    -19.941  0.0000E+00  0.0000E+00  0.0000E+00
    -19.843  0.0000E+00  0.0000E+00  0.0000E+00
    -19.746  0.0000E+00  0.0000E+00  0.0000E+00
    -19.649  0.0000E+00  0.0000E+00  0.0000E+00
    -19.552  0.0000E+00  0.0000E+00  0.0000E+00
    -19.454  0.0000E+00  0.0000E+00  0.0000E+00
    -19.357  0.0000E+00  0.0000E+00  0.0000E+00
    -19.260  0.0000E+00  0.0000E+00  0.0000E+00
    -19.162  0.0000E+00  0.0000E+00  0.0000E+00
    -19.065  0.0000E+00  0.0000E+00  0.0000E+00
    -18.968  0.0000E+00  0.0000E+00  0.0000E+00
    -18.870  0.0000E+00  0.0000E+00  0.0000E+00
    -18.773  0.0000E+00  0.0000E+00  0.0000E+00
    -18.676  0.0000E+00  0.0000E+00  0.0000E+00
    -18.579  0.0000E+00  0.0000E+00  0.0000E+00
    -18.481  0.0000E+00  0.0000E+00  0.0000E+00
    -18.384  0.0000E+00  0.0000E+00  0.0000E+00
    -18.287  0.0000E+00  0.0000E+00  0.0000E+00
    -18.189  0.0000E+00  0.0000E+00  0.0000E+00
    -18.092  0.0000E+00  0.0000E+00  0.0000E+00
    -17.995  0.0000E+00  0.0000E+00  0.0000E+00
    -17.898  0.0000E+00  0.0000E+00  0.0000E+00
    -17.800  0.0000E+00  0.0000E+00  0.0000E+00
    -17.703  0.0000E+00  0.0000E+00  0.0000E+00
    -17.606  0.0000E+00  0.0000E+00  0.0000E+00
    -17.508  0.0000E+00  0.0000E+00  0.0000E+00
    -17.411  0.0000E+00  0.0000E+00  0.0000E+00
    -17.314  0.0000E+00  0.0000E+00  0.0000E+00
    -17.216  0.0000E+00  0.0000E+00  0.0000E+00
    -17.119  0.0000E+00  0.0000E+00  0.0000E+00
    -17.022  0.0000E+00  0.0000E+00  0.0000E+00
    -16.925  0.0000E+00  0.0000E+00  0.0000E+00
    -16.827  0.0000E+00  0.0000E+00  0.0000E+00
    -16.730  0.0000E+00  0.0000E+00  0.0000E+00
    -16.633  0.0000E+00  0.0000E+00  0.0000E+00
    -16.535  0.0000E+00  0.0000E+00  0.0000E+00
    -16.438  0.0000E+00  0.0000E+00  0.0000E+00
    -16.341  0.0000E+00  0.0000E+00  0.0000E+00
    -16.243  0.0000E+00  0.0000E+00  0.0000E+00
    -16.146  0.0000E+00  0.0000E+00  0.0000E+00
    -16.049  0.0000E+00  0.0000E+00  0.0000E+00
    -15.952  0.0000E+00  0.0000E+00  0.0000E+00
    -15.854  0.0000E+00  0.0000E+00  0.0000E+00
    -15.757  0.0000E+00  0.0000E+00  0.0000E+00
    -15.660  0.0000E+00  0.0000E+00  0.0000E+00
    -15.562  0.0000E+00  0.0000E+00  0.0000E+00
    -15.465  0.0000E+00  0.0000E+00  0.0000E+00
    -15.368  0.0000E+00  0.0000E+00  0.0000E+00
    -15.270  0.0000E+00  0.0000E+00  0.0000E+00
    -15.173  0.0000E+00  0.0000E+00  0.0000E+00
    -15.076  0.0000E+00  0.0000E+00  0.0000E+00
    -14.979  0.0000E+00  0.0000E+00  0.0000E+00
    -14.881  0.0000E+00  0.0000E+00  0.0000E+00
    -14.784  0.0000E+00  0.0000E+00  0.0000E+00
    -14.687  0.0000E+00  0.0000E+00  0.0000E+00
    -14.589  0.0000E+00  0.0000E+00  0.0000E+00
    -14.492  0.0000E+00  0.0000E+00  0.0000E+00
    -14.395  0.0000E+00  0.0000E+00  0.0000E+00
    -14.298  0.0000E+00  0.0000E+00  0.0000E+00
    -14.200  0.0000E+00  0.0000E+00  0.0000E+00
    -14.103  0.0000E+00  0.0000E+00  0.0000E+00
    -14.006  0.0000E+00  0.0000E+00  0.0000E+00
    -13.908  0.0000E+00  0.0000E+00  0.0000E+00
    -13.811  0.0000E+00  0.0000E+00  0.0000E+00
    -13.714  0.0000E+00  0.0000E+00  0.0000E+00
    -13.616  0.0000E+00  0.0000E+00  0.0000E+00
    -13.519  0.0000E+00  0.0000E+00  0.0000E+00
    -13.422  0.0000E+00  0.0000E+00  0.0000E+00
    -13.325  0.0000E+00  0.0000E+00  0.0000E+00
    -13.227  0.0000E+00  0.0000E+00  0.0000E+00
    -13.130  0.0000E+00  0.0000E+00  0.0000E+00
    -13.033  0.0000E+00  0.0000E+00  0.0000E+00
    -12.935  0.0000E+00  0.0000E+00  0.0000E+00
    -12.838  0.0000E+00  0.0000E+00  0.0000E+00
    -12.741  0.0000E+00  0.0000E+00  0.0000E+00
    -12.643  0.0000E+00  0.0000E+00  0.0000E+00
    -12.546  0.5320E-15  0.3674E-14  0.0000E+00
    -12.449  0.1145E-12  0.7905E-12  0.0000E+00
    -12.352  0.1601E-10  0.1106E-09  0.0000E+00
    -12.254  0.1406E-08  0.9711E-08  0.0000E+00
    -12.157  0.7760E-07  0.5359E-06  0.0000E+00
    -12.060  0.2695E-05  0.1861E-04  0.0000E+00
    -11.962  0.5895E-04  0.4071E-03  0.0000E+00
    -11.865  0.8135E-03  0.5619E-02  0.0000E+00
    -11.768  0.7092E-02  0.4898E-01  0.0000E+00
    -11.670  0.3910E-01  0.2700E+00  0.0000E+00
    -11.573  0.1365E+00  0.9428E+00  0.0000E+00
    -11.476  0.3021E+00  0.2086E+01  0.0000E+00
    -11.379  0.4240E+00  0.2929E+01  0.0000E+00
    -11.281  0.3776E+00  0.2608E+01  0.0000E+00
    -11.184  0.2133E+00  0.1473E+01  0.0000E+00
    -11.087  0.7642E-01  0.5278E+00  0.0000E+00
    -10.989  0.1734E-01  0.1198E+00  0.0000E+00
    -10.892  0.2491E-02  0.1720E-01  0.0000E+00
    -10.795  0.2261E-03  0.1562E-02  0.0000E+00
    -10.698  0.1296E-04  0.8950E-04  0.0000E+00
    -10.600  0.4682E-06  0.3233E-05  0.0000E+00
    -10.503  0.1065E-07  0.7354E-07  0.0000E+00
    -10.406  0.1523E-09  0.1052E-08  0.0000E+00
    -10.308  0.1368E-11  0.9447E-11  0.0000E+00
    -10.211  0.7802E-14  0.5388E-13  0.0000E+00
    -10.114  0.0000E+00  0.0000E+00  0.0000E+00
    -10.016  0.0000E+00  0.0000E+00  0.0000E+00
     -9.919  0.0000E+00  0.0000E+00  0.0000E+00
     -9.822  0.0000E+00  0.0000E+00  0.0000E+00
     -9.725  0.0000E+00  0.0000E+00  0.0000E+00
     -9.627  0.0000E+00  0.0000E+00  0.0000E+00
     -9.530  0.0000E+00  0.0000E+00  0.0000E+00
     -9.433  0.0000E+00  0.0000E+00  0.0000E+00
     -9.335  0.1741E-39  0.3729E-13  0.0000E+00
     -9.238  0.3411E-37  0.7307E-11  0.0000E+00
     -9.141  0.4258E-35  0.9122E-09  0.0000E+00
     -9.043  0.3338E-33  0.7151E-07  0.0000E+00
     -8.946  0.1645E-31  0.3524E-05  0.0000E+00
     -8.849  0.5102E-30  0.1093E-03  0.0000E+00
     -8.752  0.9971E-29  0.2136E-02  0.0000E+00
     -8.654  0.1230E-27  0.2634E-01  0.0000E+00
     -8.557  0.9584E-27  0.2053E+00  0.0000E+00
     -8.460  0.4725E-26  0.1012E+01  0.0000E+00
     -8.362  0.1476E-25  0.3161E+01  0.0000E+00
     -8.265  0.2922E-25  0.6259E+01  0.0000E+00
     -8.168  0.3670E-25  0.7861E+01  0.0000E+00
     -8.071  0.2924E-25  0.6264E+01  0.0000E+00
     -7.973  0.1478E-25  0.3166E+01  0.0000E+00
     -7.876  0.4736E-26  0.1015E+01  0.0000E+00
     -7.779  0.9613E-27  0.2059E+00  0.0000E+00
     -7.681  0.1234E-27  0.2644E-01  0.0000E+00
     -7.584  0.1002E-28  0.2146E-02  0.0000E+00
     -7.487  0.5129E-30  0.1099E-03  0.0000E+00
     -7.389  0.1655E-31  0.3545E-05  0.0000E+00
     -7.292  0.3361E-33  0.7200E-07  0.0000E+00
     -7.195  0.4291E-35  0.9191E-09  0.0000E+00
     -7.098  0.3439E-37  0.7367E-11  0.0000E+00
     -7.000  0.1816E-39  0.3891E-13  0.0000E+00
     -6.903  0.0000E+00  0.0000E+00  0.0000E+00
     -6.806  0.0000E+00  0.0000E+00  0.0000E+00
     -6.708  0.0000E+00  0.0000E+00  0.0000E+00
     -6.611  0.0000E+00  0.0000E+00  0.0000E+00
     -6.514  0.0000E+00  0.0000E+00  0.0000E+00
     -6.416  0.0000E+00  0.0000E+00  0.0000E+00
     -6.319  0.0000E+00  0.0000E+00  0.0000E+00
     -6.222  0.0000E+00  0.0000E+00  0.0000E+00
     -6.125  0.0000E+00  0.0000E+00  0.0000E+00
     -6.027  0.0000E+00  0.0000E+00  0.0000E+00
     -5.930  0.0000E+00  0.0000E+00  0.0000E+00
     -5.833  0.0000E+00  0.0000E+00  0.0000E+00
     -5.735  0.0000E+00  0.0000E+00  0.0000E+00
     -5.638  0.0000E+00  0.0000E+00  0.0000E+00
     -5.541  0.0000E+00  0.0000E+00  0.0000E+00
     -5.443  0.0000E+00  0.0000E+00  0.0000E+00
     -5.346  0.0000E+00  0.0000E+00  0.0000E+00
     -5.249  0.0000E+00  0.0000E+00  0.0000E+00
     -5.152  0.0000E+00  0.0000E+00  0.0000E+00
     -5.054  0.0000E+00  0.0000E+00  0.0000E+00
     -4.957  0.0000E+00  0.0000E+00  0.0000E+00
     -4.860  0.0000E+00  0.0000E+00  0.0000E+00
     -4.762  0.0000E+00  0.0000E+00  0.0000E+00
     -4.665  0.0000E+00  0.0000E+00  0.0000E+00
     -4.568  0.0000E+00  0.0000E+00  0.0000E+00
     -4.471  0.0000E+00  0.0000E+00  0.0000E+00
     -4.373  0.0000E+00  0.0000E+00  0.0000E+00
     -4.276  0.0000E+00  0.0000E+00  0.0000E+00
     -4.179  0.0000E+00  0.0000E+00  0.0000E+00
     -4.081  0.0000E+00  0.0000E+00  0.0000E+00
     -3.984  0.0000E+00  0.0000E+00  0.0000E+00
     -3.887  0.0000E+00  0.0000E+00  0.0000E+00
     -3.789  0.0000E+00  0.0000E+00  0.0000E+00
     -3.692  0.0000E+00  0.0000E+00  0.0000E+00
     -3.595  0.0000E+00  0.0000E+00  0.0000E+00
     -3.498  0.0000E+00  0.0000E+00  0.0000E+00
     -3.400  0.0000E+00  0.0000E+00  0.0000E+00
     -3.303  0.0000E+00  0.0000E+00  0.0000E+00
     -3.206  0.0000E+00  0.0000E+00  0.0000E+00
     -3.108  0.0000E+00  0.0000E+00  0.0000E+00
     -3.011  0.0000E+00  0.0000E+00  0.0000E+00
     -2.914  0.0000E+00  0.0000E+00  0.0000E+00
     -2.816  0.0000E+00  0.0000E+00  0.0000E+00
     -2.719  0.0000E+00  0.0000E+00  0.0000E+00
     -2.622  0.0000E+00  0.0000E+00  0.0000E+00
     -2.525  0.0000E+00  0.0000E+00  0.0000E+00
     -2.427  0.0000E+00  0.0000E+00  0.0000E+00
     -2.330  0.0000E+00  0.0000E+00  0.0000E+00
     -2.233  0.0000E+00  0.0000E+00  0.0000E+00
     -2.135  0.0000E+00  0.0000E+00  0.0000E+00
     -2.038  0.0000E+00  0.0000E+00  0.0000E+00
     -1.941  0.1604E-15  0.3448E-15  0.0000E+00
     -1.843  0.3582E-13  0.7698E-13  0.0000E+00
     -1.746  0.4923E-11  0.1058E-10  0.0000E+00
     -1.649  0.4250E-09  0.9134E-09  0.0000E+00
     -1.552  0.2306E-07  0.4955E-07  0.0000E+00
     -1.454  0.7871E-06  0.1692E-05  0.0000E+00
     -1.357  0.1693E-04  0.3638E-04  0.0000E+00
     -1.260  0.2297E-03  0.4936E-03  0.0000E+00
     -1.162  0.1968E-02  0.4230E-02  0.0000E+00
     -1.065  0.1067E-01  0.2293E-01  0.0000E+00
     -0.968  0.3663E-01  0.7873E-01  0.0000E+00
     -0.871  0.7971E-01  0.1713E+00  0.0000E+00
     -0.773  0.1100E+00  0.2365E+00  0.0000E+00
     -0.676  0.9634E-01  0.2071E+00  0.0000E+00
     -0.579  0.5352E-01  0.1150E+00  0.0000E+00
     -0.481  0.1885E-01  0.4053E-01  0.0000E+00
     -0.384  0.4242E-02  0.9178E-02  0.0000E+00
     -0.287  0.8178E-03  0.2153E-02  0.0000E+00
     -0.189  0.9531E-03  0.3651E-02  0.0000E+00
     -0.092  0.2308E-02  0.9169E-02  0.0000E+00
      0.005  0.3804E-02  0.1578E-01  0.0000E+00
      0.102  0.4231E-02  0.2006E-01  0.0000E+00
      0.200  0.3610E-02  0.2279E-01  0.0000E+00
      0.297  0.2887E-02  0.2489E-01  0.0000E+00
      0.394  0.2198E-02  0.2213E-01  0.0000E+00
      0.492  0.1309E-02  0.1366E-01  0.0000E+00
      0.589  0.5299E-03  0.5488E-02  0.0000E+00
      0.686  0.1385E-03  0.1407E-02  0.0000E+00
      0.784  0.2303E-04  0.2289E-03  0.0000E+00
      0.881  0.2424E-05  0.2356E-04  0.0000E+00
      0.978  0.1612E-06  0.1531E-05  0.0000E+00
      1.075  0.6763E-08  0.6277E-07  0.0000E+00
      1.173  0.1787E-09  0.1621E-08  0.0000E+00
      1.270  0.2970E-11  0.2632E-10  0.0000E+00
      1.367  0.3101E-13  0.2687E-12  0.0000E+00
      1.465  0.2038E-15  0.1725E-14  0.0000E+00
      1.562  0.8320E-18  0.1371E-17  0.0000E+00
      1.659  0.0000E+00  0.0000E+00  0.0000E+00
      1.757  0.0000E+00  0.0000E+00  0.0000E+00
      1.854  0.0000E+00  0.0000E+00  0.0000E+00
      1.951  0.0000E+00  0.0000E+00  0.0000E+00
      2.048  0.0000E+00  0.0000E+00  0.0000E+00
      2.146  0.0000E+00  0.0000E+00  0.0000E+00
      2.243  0.0000E+00  0.0000E+00  0.0000E+00
      2.340  0.0000E+00  0.0000E+00  0.0000E+00
      2.34029578    -26.84885563  301     -8.12097993      1.00000000
    -26.849  0.0000E+00  0.0000E+00  0.0000E+00
    -26.752  0.0000E+00  0.0000E+00  0.0000E+00
    -26.654  0.0000E+00  0.0000E+00  0.0000E+00
    -26.557  0.0000E+00  0.0000E+00  0.0000E+00
    -26.460  0.0000E+00  0.0000E+00  0.0000E+00
    -26.362  0.0000E+00  0.0000E+00  0.0000E+00
    -26.265  0.0000E+00  0.0000E+00  0.0000E+00
    -26.168  0.0000E+00  0.0000E+00  0.0000E+00
    -26.070  0.0000E+00  0.0000E+00  0.0000E+00
    -25.973  0.2576E-14  0.1154E-15  0.0000E+00
    -25.876  0.5174E-12  0.2318E-13  0.0000E+00
    -25.779  0.6626E-10  0.2968E-11  0.0000E+00
    -25.681  0.5328E-08  0.2387E-09  0.0000E+00
    -25.584  0.2693E-06  0.1206E-07  0.0000E+00
    -25.487  0.8566E-05  0.3838E-06  0.0000E+00
    -25.389  0.1717E-03  0.7692E-05  0.0000E+00
    -25.292  0.2172E-02  0.9729E-04  0.0000E+00
    -25.195  0.1735E-01  0.7775E-03  0.0000E+00
    -25.098  0.8774E-01  0.3931E-02  0.0000E+00
    -25.000  0.2809E+00  0.1259E-01  0.0000E+00
    -24.903  0.5703E+00  0.2555E-01  0.0000E+00
    -24.806  0.7343E+00  0.3290E-01  0.0000E+00
    -24.708  0.5999E+00  0.2687E-01  0.0000E+00
    -24.611  0.3109E+00  0.1393E-01  0.0000E+00
    -24.514  0.1021E+00  0.4576E-02  0.0000E+00
    -24.416  0.2126E-01  0.9522E-03  0.0000E+00
    -24.319  0.2799E-02  0.1254E-03  0.0000E+00
    -24.222  0.2329E-03  0.1043E-04  0.0000E+00
    -24.125  0.1223E-04  0.5479E-06  0.0000E+00
    -24.027  0.4048E-06  0.1813E-07  0.0000E+00
    -23.930  0.8431E-08  0.3777E-09  0.0000E+00
    -23.833  0.1104E-09  0.4946E-11  0.0000E+00
    -23.735  0.9078E-12  0.4067E-13  0.0000E+00
    -23.638  0.4850E-14  0.2173E-15  0.0000E+00
    -23.541  0.0000E+00  0.0000E+00  0.0000E+00
    -23.443  0.0000E+00  0.0000E+00  0.0000E+00
    -23.346  0.0000E+00  0.0000E+00  0.0000E+00
    -23.249  0.0000E+00  0.0000E+00  0.0000E+00
    -23.152  0.0000E+00  0.0000E+00  0.0000E+00
    -23.054  0.0000E+00  0.0000E+00  0.0000E+00
    -22.957  0.0000E+00  0.0000E+00  0.0000E+00
    -22.860  0.0000E+00  0.0000E+00  0.0000E+00
    -22.762  0.0000E+00  0.0000E+00  0.0000E+00
    -22.665  0.0000E+00  0.0000E+00  0.0000E+00
    -22.568  0.0000E+00  0.0000E+00  0.0000E+00
    -22.470  0.0000E+00  0.0000E+00  0.0000E+00
    -22.373  0.0000E+00  0.0000E+00  0.0000E+00
    -22.276  0.0000E+00  0.0000E+00  0.0000E+00
    -22.179  0.0000E+00  0.0000E+00  0.0000E+00
    -22.081  0.0000E+00  0.0000E+00  0.0000E+00
    -21.984  0.0000E+00  0.0000E+00  0.0000E+00
    -21.887  0.0000E+00  0.0000E+00  0.0000E+00
    -21.789  0.0000E+00  0.0000E+00  0.0000E+00
    -21.692  0.0000E+00  0.0000E+00  0.0000E+00
    -21.595  0.0000E+00  0.0000E+00  0.0000E+00
    -21.498  0.0000E+00  0.0000E+00  0.0000E+00
    -21.400  0.0000E+00  0.0000E+00  0.0000E+00
    -21.303  0.0000E+00  0.0000E+00  0.0000E+00
    -21.206  0.0000E+00  0.0000E+00  0.0000E+00
    -21.108  0.0000E+00  0.0000E+00  0.0000E+00
    -21.011  0.0000E+00  0.0000E+00  0.0000E+00
    -20.914  0.0000E+00  0.0000E+00  0.0000E+00
    -20.816  0.0000E+00  0.0000E+00  0.0000E+00
    -20.719  0.0000E+00  0.0000E+00  0.0000E+00
    -20.622  0.0000E+00  0.0000E+00  0.0000E+00
    -20.525  0.0000E+00  0.0000E+00  0.0000E+00
    -20.427  0.0000E+00  0.0000E+00  0.0000E+00
    -20.330  0.0000E+00  0.0000E+00  0.0000E+00
    -20.233  0.0000E+00  0.0000E+00  0.0000E+00
    -20.135  0.0000E+00  0.0000E+00  0.0000E+00
    -20.038  0.0000E+00  0.0000E+00  0.0000E+00
    -19.941  0.0000E+00  0.0000E+00  0.0000E+00
    -19.843  0.0000E+00  0.0000E+00  0.0000E+00
    -19.746  0.0000E+00  0.0000E+00  0.0000E+00
    -19.649  0.0000E+00  0.0000E+00  0.0000E+00
    -19.552  0.0000E+00  0.0000E+00  0.0000E+00
    -19.454  0.0000E+00  0.0000E+00  0.0000E+00
    -19.357  0.0000E+00  0.0000E+00  0.0000E+00
    -19.260  0.0000E+00  0.0000E+00  0.0000E+00
    -19.162  0.0000E+00  0.0000E+00  0.0000E+00
    -19.065  0.0000E+00  0.0000E+00  0.0000E+00
    -18.968  0.0000E+00  0.0000E+00  0.0000E+00
    -18.870  0.0000E+00  0.0000E+00  0.0000E+00
    -18.773  0.0000E+00  0.0000E+00  0.0000E+00
    -18.676  0.0000E+00  0.0000E+00  0.0000E+00
    -18.579  0.0000E+00  0.0000E+00  0.0000E+00
    -18.481  0.0000E+00  0.0000E+00  0.0000E+00
    -18.384  0.0000E+00  0.0000E+00  0.0000E+00
    -18.287  0.0000E+00  0.0000E+00  0.0000E+00
    -18.189  0.0000E+00  0.0000E+00  0.0000E+00