    2    2    5    1
  0.4000000E+04  0.2000000E-08  0.2000000E-08  0.2000000E-08  0.1500000E-15
  1.000000000000000E-004
  CAR 
 unknown system                          
      7      1     10
 
  0.0000000E+00  0.0000000E+00  0.0000000E+00  0.1000000E+01
      1        -24.848856   1.000000
      2        -11.403401   1.000000
      3         -8.216367   0.750000
      4         -8.216367   0.750000
      5         -0.801604   0.000000
      6          0.010281   0.000000
      7          0.297861   0.000000
      8          0.297861   0.000000
      9          0.303730   0.000000
     10          0.340296   0.000000
