PROCAR new format
# of k-points:    1         # of bands:   10         # of ions:    2

 k-point     1 :    0.00000000 0.00000000 0.00000000     weight = 1.00000000

band     1 # energy  -24.84885563 # occ.  2.00000000
 
ion      s      p      d    tot
    1  0.729  0.036  0.000  0.765
    2  0.133  0.006  0.000  0.139
tot    0.862  0.042  0.000  0.904
 
band     2 # energy  -11.40340066 # occ.  2.00000000
 
ion      s      p      d    tot
    1  0.078  0.537  0.000  0.614
    2  0.191  0.003  0.000  0.194
tot    0.268  0.540  0.000  0.808
 
band     3 # energy   -8.21636719 # occ.  1.50000000
 
ion      s      p      d    tot
    1  0.000  0.710  0.000  0.710
    2  0.000  0.009  0.000  0.009
tot    0.000  0.720  0.000  0.720
 
band     4 # energy   -8.21636719 # occ.  1.50000000
 
ion      s      p      d    tot
    1  0.000  0.710  0.000  0.710
    2  0.000  0.009  0.000  0.009
tot    0.000  0.720  0.000  0.720
 
band     5 # energy   -0.80160440 # occ.  0.00000000
 
ion      s      p      d    tot
    1  0.020  0.043  0.000  0.063
    2  0.009  0.013  0.000  0.022
tot    0.029  0.056  0.000  0.085
 
band     6 # energy    0.01028075 # occ.  0.00000000
 
ion      s      p      d    tot
    1  0.001  0.003  0.000  0.004
    2  0.001  0.001  0.000  0.001
tot    0.001  0.004  0.000  0.005
 
band     7 # energy    0.29786068 # occ.  0.00000000
 
ion      s      p      d    tot
    1  0.000  0.002  0.000  0.002
    2  0.000  0.000  0.000  0.000
tot    0.000  0.002  0.000  0.002
 
band     8 # energy    0.29786068 # occ.  0.00000000
 
ion      s      p      d    tot
    1  0.000  0.002  0.000  0.002
    2  0.000  0.000  0.000  0.000
tot    0.000  0.002  0.000  0.002
 
band     9 # energy    0.30372991 # occ.  0.00000000
 
ion      s      p      d    tot
    1  0.000  0.001  0.000  0.001
    2  0.000  0.000  0.000  0.000
tot    0.000  0.001  0.000  0.001
 
band    10 # energy    0.34029578 # occ.  0.00000000
 
ion      s      p      d    tot
    1  0.000  0.000  0.000  0.000
    2  0.000  0.000  0.000  0.000
tot    0.000  0.000  0.000  0.000
 
