<?xml version="1.0" encoding="ISO-8859-1"?>
<modeling>
 <generator>
  <i name="program" type="string">vasp </i>
  <i name="version" type="string">6.4.3  </i>
  <i name="subversion" type="string">19Mar24 (build Jul 09 2024 15:45:28) complex                          parallel </i>
  <i name="platform" type="string">LinuxIFC </i>
  <i name="date" type="string">2024 10 29 </i>
  <i name="time" type="string">12:27:42 </i>
 </generator>
 <incar>
  <i type="string" name="PREC">Normal</i>
  <i type="string" name="ALGO">Normal</i>
  <i type="int" name="NSIM">    10</i>
  <i type="int" name="ISPIN">     1</i>
  <i type="int" name="NELM">    30</i>
  <i type="int" name="NELMIN">     5</i>
  <i type="int" name="IBRION">     2</i>
  <i name="EDIFF">      0.00010000</i>
  <i name="EDIFFG">     -0.10000000</i>
  <i type="int" name="NSW">     5</i>
  <i name="ENCUT">    400.00000000</i>
  <i name="POTIM">      0.15000000</i>
  <i type="logical" name="LREAL"> T  </i>
  <i type="int" name="ISMEAR">     0</i>
  <i type="logical" name="KGAMMA"> T  </i>
  <i type="logical" name="LWAVE"> F  </i>
  <i type="logical" name="LCHARG"> F  </i>
  <i type="int" name="LORBIT">    10</i>
  <i type="logical" name="LASPH"> T  </i>
  <i type="string" name="GGA">PE</i>
  <i type="logical" name="LDIPOL"> F  </i>
 </incar>
 <primitive_cell>
  <structure name="primitive_cell" >
   <crystal>
    <varray name="basis" >
     <v>      20.00000000       0.00000000       0.00000000 </v>
     <v>       0.00000000      20.00000000       0.00000000 </v>
     <v>       0.00000000       0.00000000      20.00000000 </v>
    </varray>
    <i name="volume">   8000.00000000 </i>
    <varray name="rec_basis" >
     <v>       0.05000000       0.00000000       0.00000000 </v>
     <v>       0.00000000       0.05000000       0.00000000 </v>
     <v>       0.00000000       0.00000000       0.05000000 </v>
    </varray>
   </crystal>
   <varray name="positions" >
    <v>       0.50000000       0.50000000       0.52447675 </v>
    <v>       0.50000000       0.50000000       0.47552325 </v>
   </varray>
  </structure>
  <varray name="primitive_index" >
   <v type="int" >        1 </v>
   <v type="int" >        2 </v>
  </varray>
 </primitive_cell>
 <kpoints>
  <generation param="Monkhorst-Pack">
   <v type="int" name="divisions">       1        1        1 </v>
   <v name="usershift">      0.00000000       0.00000000       0.00000000 </v>
   <v name="genvec1">      1.00000000       0.00000000       0.00000000 </v>
   <v name="genvec2">      0.00000000       1.00000000       0.00000000 </v>
   <v name="genvec3">      0.00000000       0.00000000       1.00000000 </v>
   <v name="shift">      0.00000000       0.00000000       0.00000000 </v>
  </generation>
  <varray name="kpointlist" >
   <v>       0.00000000       0.00000000       0.00000000 </v>
  </varray>
  <varray name="weights" >
   <v>       1.00000000 </v>
  </varray>
 </kpoints>
 <parameters>
  <separator name="general" >
   <i type="string" name="SYSTEM">unknown system</i>
   <i type="logical" name="LCOMPAT"> F  </i>
  </separator>
  <separator name="electronic" >
   <i type="string" name="PREC">normal</i>
   <i name="ENMAX">    400.00000000</i>
   <i name="ENAUG">    605.39200000</i>
   <i name="EDIFF">      0.00010000</i>
   <i type="int" name="IALGO">    38</i>
   <i type="int" name="IWAVPR">    11</i>
   <i type="int" name="NBANDS">    10</i>
   <i type="int" name="NBANDSLOW">    -1</i>
   <i type="int" name="NBANDSHIGH">    -1</i>
   <i name="NELECT">      7.00000000</i>
   <i type="int" name="TURBO">     0</i>
   <i type="int" name="IRESTART">     0</i>
   <i type="int" name="NREBOOT">     0</i>
   <i type="int" name="NMIN">     0</i>
   <i name="EREF">      0.00000000</i>
   <separator name="electronic smearing" >
    <i type="int" name="ISMEAR">     0</i>
    <i name="SIGMA">      0.20000000</i>
    <i name="KSPACING">      0.50000000</i>
    <i type="logical" name="KGAMMA"> T  </i>
    <i type="logical" name="KBLOWUP"> T  </i>
   </separator>
   <separator name="electronic projectors" >
    <i type="logical" name="LREAL"> T  </i>
    <v name="ROPT">      0.00000000      0.00000000</v>
    <i type="int" name="LMAXPAW">  -100</i>
    <i type="int" name="LMAXMIX">     2</i>
    <i type="logical" name="NLSPLINE"> F  </i>
   </separator>
   <separator name="electronic startup" >
    <i type="int" name="ISTART">     0</i>
    <i type="int" name="ICHARG">     2</i>
    <i type="int" name="INIWAV">     1</i>
   </separator>
   <separator name="electronic spin" >
    <i type="int" name="ISPIN">     1</i>
    <i type="logical" name="LNONCOLLINEAR"> F  </i>
    <v name="MAGMOM">      1.00000000      1.00000000</v>
    <i name="NUPDOWN">     -1.00000000</i>
    <i type="logical" name="LSORBIT"> F  </i>
    <v name="SAXIS">      0.00000000      0.00000000      1.00000000</v>
    <i type="logical" name="LSPIRAL"> F  </i>
    <v name="QSPIRAL">      0.00000000      0.00000000      0.00000000</v>
    <i type="logical" name="LZEROZ"> F  </i>
   </separator>
   <separator name="electronic exchange-correlation" >
    <i type="logical" name="LASPH"> T  </i>
   </separator>
   <separator name="electronic convergence" >
    <i type="int" name="NELM">    30</i>
    <i type="int" name="NELMDL">     0</i>
    <i type="int" name="NELMIN">     5</i>
    <i name="ENINI">    400.00000000</i>
    <separator name="electronic convergence detail" >
     <i type="logical" name="LDIAG"> T  </i>
     <i type="logical" name="LSUBROT"> F  </i>
     <i name="WEIMIN">      0.00100000</i>
     <i name="EBREAK">      0.00000250</i>
     <i name="DEPER">      0.30000000</i>
     <i type="int" name="NRMM">     4</i>
     <i name="TIME">      0.40000000</i>
    </separator>
   </separator>
   <separator name="electronic mixer" >
    <i name="AMIX">      0.40000000</i>
    <i name="BMIX">      1.00000000</i>
    <i name="AMIN">      0.10000000</i>
    <i name="AMIX_MAG">      1.60000000</i>
    <i name="BMIX_MAG">      1.00000000</i>
    <separator name="electronic mixer details" >
     <i type="int" name="IMIX">     4</i>
     <i type="logical" name="MIXFIRST"> F  </i>
     <i type="int" name="MAXMIX">   -45</i>
     <i name="WC">    100.00000000</i>
     <i type="int" name="INIMIX">     1</i>
     <i type="int" name="MIXPRE">     1</i>
     <i type="int" name="MREMOVE">     5</i>
    </separator>
   </separator>
   <separator name="electronic dipolcorrection" >
    <i type="logical" name="LDIPOL"> F  </i>
    <i type="logical" name="LMONO"> F  </i>
    <i type="int" name="IDIPOL">     0</i>
    <i name="EPSILON">      1.00000000</i>
    <v name="DIPOL">   -100.00000000   -100.00000000   -100.00000000</v>
    <i name="EFIELD">      0.00000000</i>
    <i type="logical" name="LVACPOTAV"> F  </i>
   </separator>
  </separator>
  <separator name="grids" >
   <i type="int" name="NGX">    98</i>
   <i type="int" name="NGY">    98</i>
   <i type="int" name="NGZ">    98</i>
   <i type="int" name="NGXF">   196</i>
   <i type="int" name="NGYF">   196</i>
   <i type="int" name="NGZF">   196</i>
   <i type="logical" name="ADDGRID"> F  </i>
  </separator>
  <separator name="ionic" >
   <i type="int" name="NSW">     5</i>
   <i type="int" name="IBRION">     2</i>
   <i type="int" name="MDALGO">     0</i>
   <i type="int" name="ISIF">     2</i>
   <i name="PSTRESS">      0.00000000</i>
   <i name="EDIFFG">     -0.10000000</i>
   <i type="int" name="NFREE">     1</i>
   <i name="POTIM">      0.15000000</i>
   <i name="SMASS">     -3.00000000</i>
   <i name="SCALEE">      1.00000000</i>
  </separator>
  <separator name="ionic md" >
   <i name="TEBEG">      0.00010000</i>
   <i name="TEEND">      0.00010000</i>
   <i type="int" name="NBLOCK">     1</i>
   <i type="int" name="KBLOCK">     5</i>
   <i type="int" name="NPACO">   256</i>
   <i name="APACO">     10.00000000</i>
  </separator>
  <separator name="symmetry" >
   <i type="int" name="ISYM">     2</i>
   <i name="SYMPREC">      0.00001000</i>
  </separator>
  <separator name="dos" >
   <i type="int" name="LORBIT">    10</i>
   <v name="RWIGS">     -1.00000000     -1.00000000</v>
   <i type="int" name="NEDOS">   301</i>
   <i name="EMIN">     10.00000000</i>
   <i name="EMAX">    -10.00000000</i>
   <i name="EFERMI">      0.00000000</i>
  </separator>
  <separator name="writing" >
   <i type="int" name="NWRITE">     2</i>
   <i type="logical" name="LWAVE"> F  </i>
   <i type="logical" name="LDOWNSAMPLE"> F  </i>
   <i type="logical" name="LCHARG"> F  </i>
   <i type="logical" name="LPARD"> F  </i>
   <i type="logical" name="LVTOT"> F  </i>
   <i type="logical" name="LVHAR"> F  </i>
   <i type="logical" name="LELF"> F  </i>
   <i type="logical" name="LOPTICS"> F  </i>
   <v name="STM">      0.00000000      0.00000000      0.00000000      0.00000000      0.00000000      0.00000000      0.00000000</v>
  </separator>
  <separator name="performance" >
   <i type="int" name="NPAR">    10</i>
   <i type="int" name="NSIM">    10</i>
   <i type="int" name="NBLK">    -1</i>
   <i type="logical" name="LPLANE"> T  </i>
   <i type="logical" name="LSCALAPACK"> T  </i>
   <i type="logical" name="LSCAAWARE"> F  </i>
   <i type="logical" name="LSCALU"> F  </i>
   <i type="logical" name="LASYNC"> F  </i>
   <i type="logical" name="LORBITALREAL"> F  </i>
  </separator>
  <separator name="miscellaneous" >
   <i type="int" name="IDIOT">     3</i>
   <i type="int" name="PHON_NSTRUCT">    -1</i>
   <i type="logical" name="LMUSIC"> F  </i>
   <v name="POMASS">     16.00000000      1.00000000</v>
   <v name="DARWINR">      0.00000000      0.00000000</v>
   <v name="DARWINV">      1.00000000      1.00000000</v>
   <i type="logical" name="LCORR"> T  </i>
  </separator>
  <i type="logical" name="GGA_COMPAT"> T  </i>
  <i type="logical" name="LBERRY"> F  </i>
  <i type="int" name="ICORELEVEL">     0</i>
  <i type="logical" name="LDAU"> F  </i>
  <i type="int" name="I_CONSTRAINED_M">     0</i>
  <separator name="electronic exchange-correlation" >
   <i type="string" name="GGA    ">PE</i>
   <i type="string" name="XC_C">1</i>
   <i type="int" name="VOSKOWN">     0</i>
   <i type="logical" name="LHFCALC"> F  </i>
   <i type="string" name="PRECFOCK"></i>
   <i type="logical" name="LSYMGRAD"> F  </i>
   <i type="logical" name="LHFONE"> F  </i>
   <i type="logical" name="LRHFCALC"> F  </i>
   <i type="logical" name="LTHOMAS"> F  </i>
   <i type="logical" name="LMODELHF"> F  </i>
   <i type="logical" name="LFOCKACE"> F  </i>
   <i name="ENCUT4O">     -1.00000000</i>
   <i type="int" name="EXXOEP">     0</i>
   <i type="int" name="FOURORBIT">     0</i>
   <i name="AEXX">      0.00000000</i>
   <i name="HFALPHA">      0.00000000</i>
   <i name="MCALPHA">      0.00000000</i>
   <i name="ALDAX">      1.00000000</i>
   <i name="AGGAX">      1.00000000</i>
   <i name="AMGGAX">      1.00000000</i>
   <i name="ALDAC">      1.00000000</i>
   <i name="AGGAC">      1.00000000</i>
   <i name="AMGGAC">      1.00000000</i>
   <i type="int" name="NKREDX">     1</i>
   <i type="int" name="NKREDY">     1</i>
   <i type="int" name="NKREDZ">     1</i>
   <i type="logical" name="SHIFTRED"> F  </i>
   <i type="logical" name="ODDONLY"> F  </i>
   <i type="logical" name="EVENONLY"> F  </i>
   <i type="int" name="LMAXFOCK">     0</i>
   <i type="int" name="NMAXFOCKAE">     0</i>
   <i type="logical" name="LFOCKAEDFT"> F  </i>
   <i name="HFSCREEN">      0.00000000</i>
   <i name="HFSCREENC">      0.00000000</i>
   <i type="int" name="NBANDSGWLOW">     0</i>
  </separator>
  <separator name="vdW DFT" >
   <i type="logical" name="LUSE_VDW"> F  </i>
   <i type="int" name="IVDW_NL">    -1</i>
   <i type="logical" name="LSPIN_VDW"> F  </i>
   <i name="ZAB_VDW">     -0.84910000</i>
   <i name="GAMMA_VDW">      1.39626340</i>
   <i name="ALPHA_VDW">      0.00000000</i>
   <i name="PARAM1">      0.12340000</i>
   <i name="PARAM2">      1.00000000</i>
   <i name="BPARAM">      6.30000000</i>
   <i name="CPARAM">      0.00930000</i>
  </separator>
  <separator name="model GW" >
   <i type="int" name="MODEL_GW">     0</i>
   <i name="MODEL_EPS0">   2400.00000000</i>
   <i name="MODEL_ALPHA">      1.00000000</i>
  </separator>
  <separator name="linear response parameters" >
   <i type="logical" name="LEPSILON"> F  </i>
   <i type="logical" name="LRPA"> F  </i>
   <i type="logical" name="LNABLA"> F  </i>
   <i type="logical" name="LVEL"> F  </i>
   <i name="CSHIFT">      0.10000000</i>
   <i name="OMEGAMAX">     -1.00000000</i>
   <i name="DEG_THRESHOLD">      0.00200000</i>
   <i name="RTIME">     -0.10000000</i>
   <i name="WPLASMAI">      0.00000000</i>
   <v name="DFIELD">      0.00000000      0.00000000      0.00000000</v>
   <v name="WPLASMA">      0.00000000      0.00000000      0.00000000      0.00000000      0.00000000      0.00000000      0.00000000      0.00000000      0.00000000</v>
  </separator>
  <separator name="orbital magnetization" >
   <i type="logical" name="NUCIND"> F  </i>
   <v name="MAGPOS">      0.00000000      0.00000000      0.00000000</v>
   <i type="logical" name="LNICSALL"> T  </i>
   <i type="logical" name="ORBITALMAG"> F  </i>
   <i type="logical" name="LMAGBLOCH"> F  </i>
   <i type="logical" name="LCHIMAG"> F  </i>
   <i type="logical" name="LGAUGE"> T  </i>
   <i type="int" name="MAGATOM">     0</i>
   <v name="MAGDIPOL">      0.00000000      0.00000000      0.00000000</v>
   <v name="AVECCONST">      0.00000000      0.00000000      0.00000000</v>
  </separator>
  <separator name="response functions" >
   <i type="logical" name="LALL_IN_ONE"> F  </i>
   <i type="int" name="IALL_IN_ONE">    -1</i>
   <i type="int" name="NBANDS_WAVE">    -1</i>
   <i type="logical" name="LFINITE_TEMPERATURE"> F  </i>
   <i type="logical" name="LADDER"> F  </i>
   <i type="logical" name="LRPAFORCE"> F  </i>
   <i type="logical" name="LFXC"> F  </i>
   <i type="logical" name="LHARTREE"> T  </i>
   <i type="int" name="IBSE">     0</i>
   <v type="int" name="KPOINT">    -1     0     0     0</v>
   <i type="logical" name="LTCTC"> F  </i>
   <i type="logical" name="LTCTE"> F  </i>
   <i type="logical" name="LTETE"> F  </i>
   <i type="logical" name="LTRIPLET"> F  </i>
   <i type="logical" name="LFXCEPS"> F  </i>
   <i type="logical" name="LFXHEG"> F  </i>
   <i type="int" name="NATURALO">     2</i>
   <i type="logical" name="LHOLEGF"> F  </i>
   <i type="logical" name="L2ORDER"> F  </i>
   <i type="logical" name="LDMP1"> F  </i>
   <i type="logical" name="LMP2LT"> F  </i>
   <i type="logical" name="LSMP2LT"> F  </i>
   <i type="logical" name="LGWLF"> F  </i>
   <i name="ENCUTGW">     -1.60000002</i>
   <i name="ENCUTGWSOFT">     -1.60000002</i>
   <i name="ENCUTLF">     -1.00000000</i>
   <i type="logical" name="ESF_SPLINES"> F  </i>
   <i name="ESF_CONV">      0.01000000</i>
   <i type="int" name="ESF_NINTER">    15</i>
   <i type="int" name="LMAXMP2">    -1</i>
   <i name="SCISSOR">      0.00000000</i>
   <i type="int" name="NOMEGA">     0</i>
   <i type="int" name="NOMEGAR">     0</i>
   <i type="int" name="NBANDSGW">    -1</i>
   <i type="int" name="NBANDSO">    -1</i>
   <i type="int" name="NBANDSV">    -1</i>
   <i type="int" name="NELMGW">     1</i>
   <i type="int" name="NELMHF">     1</i>
   <i type="int" name="DIM">     3</i>
   <i type="int" name="IESPILON">     4</i>
   <i type="int" name="ANTIRES">     0</i>
   <i name="OMEGAMAX">    -30.00000000</i>
   <i name="OMEGAMIN">    -30.00000000</i>
   <i name="OMEGATL">   -200.00000000</i>
   <i type="int" name="OMEGAGRID">     0</i>
   <i name="CSHIFT">     -0.10000000</i>
   <i type="logical" name="LSELFENERGY"> F  </i>
   <i type="logical" name="LSPECTRAL"> F  </i>
   <i type="logical" name="LSPECTRALGW"> F  </i>
   <i type="logical" name="LSINGLES"> F  </i>
   <i type="logical" name="LFERMIGW"> F  </i>
   <i type="logical" name="ODDONLYGW"> F  </i>
   <i type="logical" name="EVENONLYGW"> F  </i>
   <i type="int" name="NKREDLFX">     1</i>
   <i type="int" name="NKREDLFY">     1</i>
   <i type="int" name="NKREDLFZ">     1</i>
   <i type="int" name="MAXMEM">  2800</i>
   <i type="int" name="TELESCOPE">     0</i>
   <i type="int" name="NTAUPAR">    -1</i>
   <i type="int" name="NOMEGAPAR">    -1</i>
   <i name="DAMP_NEWTON">      0.80000001</i>
   <i name="LAMBDA">      1.00000000</i>
  </separator>
  <separator name="External order field" >
   <i name="OFIELD_KAPPA">      0.00000000</i>
   <v name="OFIELD_K">      0.00000000      0.00000000      0.00000000</v>
   <i name="OFIELD_Q6_NEAR">      0.00000000</i>
   <i name="OFIELD_Q6_FAR">      0.00000000</i>
   <i name="OFIELD_A">      0.00000000</i>
  </separator>
  <separator name="optional k-points parameters" >
   <i type="int" name="KPOINTS_OPT_MODE">     1</i>
   <i type="logical" name="LKPOINTS_OPT"> F  </i>
  </separator>
 </parameters>
 <atominfo>
  <atoms>       2 </atoms>
  <types>       2 </types>
  <array name="atoms" >
   <dimension dim="1">ion</dimension>
   <field type="string">element</field>
   <field type="int">atomtype</field>
   <set>
    <rc><c>O </c><c>   1</c></rc>
    <rc><c>H </c><c>   2</c></rc>
   </set>
  </array>
  <array name="atomtypes" >
   <dimension dim="1">type</dimension>
   <field type="int">atomspertype</field>
   <field type="string">element</field>
   <field>mass</field>
   <field>valence</field>
   <field type="string">pseudopotential</field>
   <set>
    <rc><c>   1</c><c>O </c><c>     16.00000000</c><c>      6.00000000</c><c>  PAW_PBE O 08Apr2002                   </c></rc>
    <rc><c>   1</c><c>H </c><c>      1.00000000</c><c>      1.00000000</c><c>  PAW_PBE H 15Jun2001                   </c></rc>
   </set>
  </array>
 </atominfo>
 <structure name="initialpos" >
  <crystal>
   <varray name="basis" >
    <v>      20.00000000       0.00000000       0.00000000 </v>
    <v>       0.00000000      20.00000000       0.00000000 </v>
    <v>       0.00000000       0.00000000      20.00000000 </v>
   </varray>
   <i name="volume">   8000.00000000 </i>
   <varray name="rec_basis" >
    <v>       0.05000000       0.00000000       0.00000000 </v>
    <v>       0.00000000       0.05000000       0.00000000 </v>
    <v>       0.00000000       0.00000000       0.05000000 </v>
   </varray>
  </crystal>
  <varray name="positions" >
   <v>       0.50000000       0.50000000       0.52447675 </v>
   <v>       0.50000000       0.50000000       0.47552325 </v>
  </varray>
 </structure>
 <calculation>
  <scstep>
   <time name="dav">    0.15    0.15</time>
   <time name="total">    0.33    0.33</time>
   <energy>
    <i name="alphaZ">      0.02239584 </i>
    <i name="ewald">     38.21827658 </i>
    <i name="hartreedc">   -404.64981492 </i>
    <i name="XCdc">     29.07735232 </i>
    <i name="pawpsdc">    348.68350433 </i>
    <i name="pawaedc">   -350.49105278 </i>
    <i name="eentropy">     -0.19009100 </i>
    <i name="bandstr">    -53.53026793 </i>
    <i name="atom">    444.74182870 </i>
    <i name="e_fr_energy">     51.88213115 </i>
    <i name="e_wo_entrp">     52.07222215 </i>
    <i name="e_0_energy">     51.97717665 </i>
   </energy>
  </scstep>
  <scstep>
   <time name="dav">    0.16    0.16</time>
   <time name="total">    0.16    0.16</time>
   <energy>
    <i name="e_fr_energy">      5.39939730 </i>
    <i name="e_wo_entrp">      5.51223521 </i>
    <i name="e_0_energy">      5.45581625 </i>
   </energy>
  </scstep>
  <scstep>
   <time name="dav">    0.09    0.09</time>
   <time name="total">    0.09    0.09</time>
   <energy>
    <i name="e_fr_energy">     -7.33139896 </i>
    <i name="e_wo_entrp">     -7.18159409 </i>
    <i name="e_0_energy">     -7.25649652 </i>
   </energy>
  </scstep>
  <scstep>
   <time name="dav">    0.09    0.10</time>
   <time name="total">    0.09    0.10</time>
   <energy>
    <i name="e_fr_energy">     -7.79665523 </i>
    <i name="e_wo_entrp">     -7.61689708 </i>
    <i name="e_0_energy">     -7.70677615 </i>
   </energy>
  </scstep>
  <scstep>
   <time name="dav">    0.10    0.10</time>
   <time name="total">    0.20    0.20</time>
   <energy>
    <i name="e_fr_energy">     -7.80383591 </i>
    <i name="e_wo_entrp">     -7.62407434 </i>
    <i name="e_0_energy">     -7.71395512 </i>
   </energy>
  </scstep>
  <scstep>
   <time name="dav">    0.09    0.09</time>
   <time name="total">    0.36    0.36</time>
   <energy>
    <i name="e_fr_energy">     -7.35701993 </i>
    <i name="e_wo_entrp">     -7.17725835 </i>
    <i name="e_0_energy">     -7.26713914 </i>
   </energy>
  </scstep>
  <scstep>
   <time name="dav">    0.12    0.12</time>
   <time name="total">    0.39    0.39</time>
   <energy>
    <i name="e_fr_energy">     -7.30413007 </i>
    <i name="e_wo_entrp">     -7.12436849 </i>
    <i name="e_0_energy">     -7.21424928 </i>
   </energy>
  </scstep>
  <scstep>
   <time name="dav">    0.09    0.09</time>
   <time name="total">    0.35    0.36</time>
   <energy>
    <i name="e_fr_energy">     -7.28094050 </i>
    <i name="e_wo_entrp">     -7.10117892 </i>
    <i name="e_0_energy">     -7.19105971 </i>
   </energy>
  </scstep>
  <scstep>
   <time name="dav">    0.15    0.15</time>
   <time name="total">    0.41    0.42</time>
   <energy>
    <i name="e_fr_energy">     -7.28187444 </i>
    <i name="e_wo_entrp">     -7.10211287 </i>
    <i name="e_0_energy">     -7.19199365 </i>
   </energy>
  </scstep>
  <scstep>
   <time name="dav">    0.15    0.15</time>
   <time name="total">    0.41    0.42</time>
   <energy>
    <i name="e_fr_energy">     -7.28586686 </i>
    <i name="e_wo_entrp">     -7.10610528 </i>
    <i name="e_0_energy">     -7.19598607 </i>
   </energy>
  </scstep>
  <scstep>
   <time name="dav">    0.15    0.15</time>
   <time name="total">    0.41    0.42</time>
   <energy>
    <i name="e_fr_energy">     -7.28969804 </i>
    <i name="e_wo_entrp">     -7.10993647 </i>
    <i name="e_0_energy">     -7.19981725 </i>
   </energy>
  </scstep>
  <scstep>
   <time name="dav">    0.09    0.09</time>
   <time name="total">    0.37    0.37</time>
   <energy>
    <i name="e_fr_energy">     -7.29160946 </i>
    <i name="e_wo_entrp">     -7.11184788 </i>
    <i name="e_0_energy">     -7.20172867 </i>
   </energy>
  </scstep>
  <scstep>
   <time name="dav">    0.09    0.09</time>
   <time name="total">    0.35    0.36</time>
   <energy>
    <i name="e_fr_energy">     -7.29345220 </i>
    <i name="e_wo_entrp">     -7.11369062 </i>
    <i name="e_0_energy">     -7.20357141 </i>
   </energy>
  </scstep>
  <scstep>
   <time name="dav">    0.15    0.15</time>
   <time name="total">    0.31    0.32</time>
   <energy>
    <i name="alphaZ">      0.02239584 </i>
    <i name="ewald">     38.21827658 </i>
    <i name="hartreedc">   -421.01401037 </i>
    <i name="XCdc">     30.01084742 </i>
    <i name="pawpsdc">    459.68612057 </i>
    <i name="pawaedc">   -461.48997013 </i>
    <i name="eentropy">     -0.17976158 </i>
    <i name="bandstr">    -97.28916642 </i>
    <i name="atom">    444.74182870 </i>
    <i name="e_fr_energy">     -7.29343939 </i>
    <i name="e_wo_entrp">     -7.11367782 </i>
    <i name="e_0_energy">     -7.20355861 </i>
   </energy>
  </scstep>
  <structure>
   <crystal>
    <varray name="basis" >
     <v>      20.00000000       0.00000000       0.00000000 </v>
     <v>       0.00000000      20.00000000       0.00000000 </v>
     <v>       0.00000000       0.00000000      20.00000000 </v>
    </varray>
    <i name="volume">   8000.00000000 </i>
    <varray name="rec_basis" >
     <v>       0.05000000       0.00000000       0.00000000 </v>
     <v>       0.00000000       0.05000000       0.00000000 </v>
     <v>       0.00000000       0.00000000       0.05000000 </v>
    </varray>
   </crystal>
   <varray name="positions" >
    <v>       0.50000000       0.50000000       0.52447675 </v>
    <v>       0.50000000       0.50000000       0.47552325 </v>
   </varray>
  </structure>
  <varray name="forces" >
   <v>      -0.00000000       0.00000000       1.30701423 </v>
   <v>       0.00000000      -0.00000000      -1.30701423 </v>
  </varray>
  <varray name="stress" >
   <v>      -0.63842941       0.00000000       0.00000000 </v>
   <v>       0.00000000      -0.63842941       0.00000000 </v>
   <v>       0.00000000      -0.00000000       0.25100411 </v>
  </varray>
  <energy>
   <i name="e_fr_energy">     -7.29343939 </i>
   <i name="e_wo_entrp">     -7.11367782 </i>
   <i name="e_0_energy">     -7.20355861 </i>
  </energy>
  <time name="totalsc">    4.83    4.92</time>
 </calculation>
 <calculation>
  <scstep>
   <time name="dav">    0.09    0.09</time>
   <time name="total">    0.35    0.35</time>
   <energy>
    <i name="alphaZ">      0.02239584 </i>
    <i name="ewald">     34.93695022 </i>
    <i name="hartreedc">   -419.48257090 </i>
    <i name="XCdc">     29.93942041 </i>
    <i name="pawpsdc">    459.53533122 </i>
    <i name="pawaedc">   -461.33870567 </i>
    <i name="eentropy">     -0.17976158 </i>
    <i name="bandstr">    -95.42172796 </i>
    <i name="atom">    444.74182870 </i>
    <i name="e_fr_energy">     -7.24683971 </i>
    <i name="e_wo_entrp">     -7.06707814 </i>
    <i name="e_0_energy">     -7.15695893 </i>
   </energy>
  </scstep>
  <scstep>
   <time name="dav">    0.12    0.12</time>
   <time name="total">    0.38    0.39</time>
   <energy>
    <i name="e_fr_energy">     -7.24955187 </i>
    <i name="e_wo_entrp">     -7.06979029 </i>
    <i name="e_0_energy">     -7.15967108 </i>
   </energy>
  </scstep>
  <scstep>
   <time name="dav">    0.12    0.12</time>
   <time name="total">    0.38    0.39</time>
   <energy>
    <i name="e_fr_energy">     -7.24974315 </i>
    <i name="e_wo_entrp">     -7.06998157 </i>
    <i name="e_0_energy">     -7.15986236 </i>
   </energy>
  </scstep>
  <scstep>
   <time name="dav">    0.09    0.09</time>
   <time name="total">    0.35    0.36</time>
   <energy>
    <i name="e_fr_energy">     -7.24996497 </i>
    <i name="e_wo_entrp">     -7.07020340 </i>
    <i name="e_0_energy">     -7.16008419 </i>
   </energy>
  </scstep>
  <scstep>
   <time name="dav">    0.15    0.15</time>
   <time name="total">    0.31    0.32</time>
   <energy>
    <i name="alphaZ">      0.02239584 </i>
    <i name="ewald">     34.93695022 </i>
    <i name="hartreedc">   -418.55256308 </i>
    <i name="XCdc">     29.87661642 </i>
    <i name="pawpsdc">    445.93928097 </i>
    <i name="pawaedc">   -447.76471940 </i>
    <i name="eentropy">     -0.17976158 </i>
    <i name="bandstr">    -96.27002692 </i>
    <i name="atom">    444.74182870 </i>
    <i name="e_fr_energy">     -7.24999882 </i>
    <i name="e_wo_entrp">     -7.07023725 </i>
    <i name="e_0_energy">     -7.16011803 </i>
   </energy>
  </scstep>
  <structure>
   <crystal>
    <varray name="basis" >
     <v>      20.00000000       0.00000000       0.00000000 </v>
     <v>       0.00000000      20.00000000       0.00000000 </v>
     <v>       0.00000000       0.00000000      20.00000000 </v>
    </varray>
    <i name="volume">   8000.00000000 </i>
    <varray name="rec_basis" >
     <v>       0.05000000       0.00000000       0.00000000 </v>
     <v>       0.00000000       0.05000000       0.00000000 </v>
     <v>       0.00000000       0.00000000       0.05000000 </v>
    </varray>
   </crystal>
   <varray name="positions" >
    <v>       0.50000000       0.50000000       0.52542256 </v>
    <v>       0.50000000       0.50000000       0.47457744 </v>
   </varray>
  </structure>
  <varray name="forces" >
   <v>       0.00000000      -0.00000000      -1.27095986 </v>
   <v>      -0.00000000       0.00000000       1.27095986 </v>
  </varray>
  <varray name="stress" >
   <v>      -0.32389051       0.00000000       0.00000000 </v>
   <v>       0.00000000      -0.32389051       0.00000000 </v>
   <v>       0.00000000       0.00000000      -0.52749245 </v>
  </varray>
  <energy>
   <i name="e_fr_energy">     -7.24999882 </i>
   <i name="e_wo_entrp">     -7.07023725 </i>
   <i name="e_0_energy">     -7.16011803 </i>
  </energy>
  <time name="totalsc">    2.36    2.41</time>
 </calculation>
 <calculation>
  <scstep>
   <time name="dav">    0.10    0.10</time>
   <time name="total">    0.36    0.36</time>
   <energy>
    <i name="alphaZ">      0.02239584 </i>
    <i name="ewald">     36.52355987 </i>
    <i name="hartreedc">   -419.29243048 </i>
    <i name="XCdc">     29.91062375 </i>
    <i name="pawpsdc">    445.93150433 </i>
    <i name="pawaedc">   -447.75703581 </i>
    <i name="eentropy">     -0.17976158 </i>
    <i name="bandstr">    -97.17725301 </i>
    <i name="atom">    444.74182870 </i>
    <i name="e_fr_energy">     -7.27656838 </i>
    <i name="e_wo_entrp">     -7.09680681 </i>
    <i name="e_0_energy">     -7.18668759 </i>
   </energy>
  </scstep>
  <scstep>
   <time name="dav">    0.12    0.12</time>
   <time name="total">    0.38    0.39</time>
   <energy>
    <i name="e_fr_energy">     -7.27727307 </i>
    <i name="e_wo_entrp">     -7.09751150 </i>
    <i name="e_0_energy">     -7.18739228 </i>
   </energy>
  </scstep>
  <scstep>
   <time name="dav">    0.12    0.12</time>
   <time name="total">    0.38    0.39</time>
   <energy>
    <i name="e_fr_energy">     -7.27742565 </i>
    <i name="e_wo_entrp">     -7.09766408 </i>
    <i name="e_0_energy">     -7.18754486 </i>
   </energy>
  </scstep>
  <scstep>
   <time name="dav">    0.12    0.12</time>
   <time name="total">    0.38    0.39</time>
   <energy>
    <i name="e_fr_energy">     -7.27743711 </i>
    <i name="e_wo_entrp">     -7.09767553 </i>
    <i name="e_0_energy">     -7.18755632 </i>
   </energy>
  </scstep>
  <scstep>
   <time name="dav">    0.12    0.12</time>
   <time name="total">    0.28    0.29</time>
   <energy>
    <i name="alphaZ">      0.02239584 </i>
    <i name="ewald">     36.52355987 </i>
    <i name="hartreedc">   -419.75070746 </i>
    <i name="XCdc">     29.94158507 </i>
    <i name="pawpsdc">    452.65109352 </i>
    <i name="pawaedc">   -454.46339206 </i>
    <i name="eentropy">     -0.17976158 </i>
    <i name="bandstr">    -96.76404582 </i>
    <i name="atom">    444.74182870 </i>
    <i name="e_fr_energy">     -7.27744393 </i>
    <i name="e_wo_entrp">     -7.09768235 </i>
    <i name="e_0_energy">     -7.18756314 </i>
   </energy>
  </scstep>
  <structure>
   <crystal>
    <varray name="basis" >
     <v>      20.00000000       0.00000000       0.00000000 </v>
     <v>       0.00000000      20.00000000       0.00000000 </v>
     <v>       0.00000000       0.00000000      20.00000000 </v>
    </varray>
    <i name="volume">   8000.00000000 </i>
    <varray name="rec_basis" >
     <v>       0.05000000       0.00000000       0.00000000 </v>
     <v>       0.00000000       0.05000000       0.00000000 </v>
     <v>       0.00000000       0.00000000       0.05000000 </v>
    </varray>
   </crystal>
   <varray name="positions" >
    <v>       0.50000000       0.50000000       0.52495627 </v>
    <v>       0.50000000       0.50000000       0.47504373 </v>
   </varray>
  </structure>
  <varray name="forces" >
   <v>       0.00000000       0.00000000      -1.86415808 </v>
   <v>      -0.00000000      -0.00000000       1.86415808 </v>
  </varray>
  <varray name="stress" >
   <v>      -0.51763649       0.00000000      -0.00000000 </v>
   <v>       0.00000000      -0.51763649       0.00000000 </v>
   <v>       0.00000000       0.00000000      -0.33522137 </v>
  </varray>
  <energy>
   <i name="e_fr_energy">     -7.27744393 </i>
   <i name="e_wo_entrp">     -7.09768235 </i>
   <i name="e_0_energy">     -7.18756314 </i>
  </energy>
  <time name="totalsc">    2.39    2.43</time>
 </calculation>
 <calculation>
  <scstep>
   <time name="dav">    0.09    0.09</time>
   <time name="total">    0.35    0.35</time>
   <energy>
    <i name="alphaZ">      0.02239584 </i>
    <i name="ewald">     37.51180506 </i>
    <i name="hartreedc">   -420.20588703 </i>
    <i name="XCdc">     29.96270065 </i>
    <i name="pawpsdc">    452.65438042 </i>
    <i name="pawaedc">   -454.46671308 </i>
    <i name="eentropy">     -0.17976158 </i>
    <i name="bandstr">    -97.33607186 </i>
    <i name="atom">    444.74182870 </i>
    <i name="e_fr_energy">     -7.29532287 </i>
    <i name="e_wo_entrp">     -7.11556129 </i>
    <i name="e_0_energy">     -7.20544208 </i>
   </energy>
  </scstep>
  <scstep>
   <time name="dav">    0.15    0.15</time>
   <time name="total">    0.41    0.42</time>
   <energy>
    <i name="e_fr_energy">     -7.29557991 </i>
    <i name="e_wo_entrp">     -7.11581833 </i>
    <i name="e_0_energy">     -7.20569912 </i>
   </energy>
  </scstep>
  <scstep>
   <time name="dav">    0.12    0.12</time>
   <time name="total">    0.38    0.39</time>
   <energy>
    <i name="e_fr_energy">     -7.29558837 </i>
    <i name="e_wo_entrp">     -7.11582679 </i>
    <i name="e_0_energy">     -7.20570758 </i>
   </energy>
  </scstep>
  <scstep>
   <time name="dav">    0.15    0.15</time>
   <time name="total">    0.41    0.42</time>
   <energy>
    <i name="e_fr_energy">     -7.29559620 </i>
    <i name="e_wo_entrp">     -7.11583462 </i>
    <i name="e_0_energy">     -7.20571541 </i>
   </energy>
  </scstep>
  <scstep>
   <time name="dav">    0.15    0.15</time>
   <time name="total">    0.31    0.32</time>
   <energy>
    <i name="alphaZ">      0.02239584 </i>
    <i name="ewald">     37.51180506 </i>
    <i name="hartreedc">   -420.49798889 </i>
    <i name="XCdc">     29.98220190 </i>
    <i name="pawpsdc">    456.93441781 </i>
    <i name="pawaedc">   -458.73786744 </i>
    <i name="eentropy">     -0.17976158 </i>
    <i name="bandstr">    -97.07263169 </i>
    <i name="atom">    444.74182870 </i>
    <i name="e_fr_energy">     -7.29560027 </i>
    <i name="e_wo_entrp">     -7.11583870 </i>
    <i name="e_0_energy">     -7.20571949 </i>
   </energy>
  </scstep>
  <structure>
   <crystal>
    <varray name="basis" >
     <v>      20.00000000       0.00000000       0.00000000 </v>
     <v>       0.00000000      20.00000000       0.00000000 </v>
     <v>       0.00000000       0.00000000      20.00000000 </v>
    </varray>
    <i name="volume">   8000.00000000 </i>
    <varray name="rec_basis" >
     <v>       0.05000000       0.00000000       0.00000000 </v>
     <v>       0.00000000       0.05000000       0.00000000 </v>
     <v>       0.00000000       0.00000000       0.05000000 </v>
    </varray>
   </crystal>
   <varray name="positions" >
    <v>       0.50000000       0.50000000       0.52467439 </v>
    <v>       0.50000000       0.50000000       0.47532561 </v>
   </varray>
  </structure>
  <varray name="forces" >
   <v>      -0.00000000       0.00000000      -0.87632675 </v>
   <v>       0.00000000      -0.00000000       0.87632675 </v>
  </varray>
  <varray name="stress" >
   <v>      -0.65782763       0.00000000       0.00000000 </v>
   <v>       0.00000000      -0.65782763      -0.00000000 </v>
   <v>      -0.00000000       0.00000000      -0.18773611 </v>
  </varray>
  <energy>
   <i name="e_fr_energy">     -7.29560027 </i>
   <i name="e_wo_entrp">     -7.11583870 </i>
   <i name="e_0_energy">     -7.20571949 </i>
  </energy>
  <time name="totalsc">    2.47    2.51</time>
 </calculation>
 <calculation>
  <scstep>
   <time name="dav">    0.09    0.09</time>
   <time name="total">    0.35    0.35</time>
   <energy>
    <i name="alphaZ">      0.02239584 </i>
    <i name="ewald">     37.79399628 </i>
    <i name="hartreedc">   -420.63081451 </i>
    <i name="XCdc">     29.98842302 </i>
    <i name="pawpsdc">    456.93661823 </i>
    <i name="pawaedc">   -458.74009318 </i>
    <i name="eentropy">     -0.17976158 </i>
    <i name="bandstr">    -97.22966722 </i>
    <i name="atom">    444.74182870 </i>
    <i name="e_fr_energy">     -7.29707442 </i>
    <i name="e_wo_entrp">     -7.11731285 </i>
    <i name="e_0_energy">     -7.20719363 </i>
   </energy>
  </scstep>
  <scstep>
   <time name="dav">    0.15    0.15</time>
   <time name="total">    0.41    0.42</time>
   <energy>
    <i name="e_fr_energy">     -7.29709504 </i>
    <i name="e_wo_entrp">     -7.11733346 </i>
    <i name="e_0_energy">     -7.20721425 </i>
   </energy>
  </scstep>
  <scstep>
   <time name="dav">    0.15    0.15</time>
   <time name="total">    0.41    0.42</time>
   <energy>
    <i name="e_fr_energy">     -7.29709506 </i>
    <i name="e_wo_entrp">     -7.11733348 </i>
    <i name="e_0_energy">     -7.20721427 </i>
   </energy>
  </scstep>
  <scstep>
   <time name="dav">    0.15    0.15</time>
   <time name="total">    0.41    0.42</time>
   <energy>
    <i name="e_fr_energy">     -7.29709758 </i>
    <i name="e_wo_entrp">     -7.11733601 </i>
    <i name="e_0_energy">     -7.20721679 </i>
   </energy>
  </scstep>
  <scstep>
   <time name="dav">    0.15    0.15</time>
   <time name="total">    0.31    0.32</time>
   <energy>
    <i name="alphaZ">      0.02239584 </i>
    <i name="ewald">     37.79399628 </i>
    <i name="hartreedc">   -420.71309726 </i>
    <i name="XCdc">     29.99385457 </i>
    <i name="pawpsdc">    458.05384298 </i>
    <i name="pawaedc">   -459.85654488 </i>
    <i name="eentropy">     -0.17976158 </i>
    <i name="bandstr">    -97.15361414 </i>
    <i name="atom">    444.74182870 </i>
    <i name="e_fr_energy">     -7.29709949 </i>
    <i name="e_wo_entrp">     -7.11733791 </i>
    <i name="e_0_energy">     -7.20721870 </i>
   </energy>
  </scstep>
  <structure>
   <crystal>
    <varray name="basis" >
     <v>      20.00000000       0.00000000       0.00000000 </v>
     <v>       0.00000000      20.00000000       0.00000000 </v>
     <v>       0.00000000       0.00000000      20.00000000 </v>
    </varray>
    <i name="volume">   8000.00000000 </i>
    <varray name="rec_basis" >
     <v>       0.05000000       0.00000000       0.00000000 </v>
     <v>       0.00000000       0.05000000       0.00000000 </v>
     <v>       0.00000000       0.00000000       0.05000000 </v>
    </varray>
   </crystal>
   <varray name="positions" >
    <v>       0.50000000       0.50000000       0.52459506 </v>
    <v>       0.50000000       0.50000000       0.47540494 </v>
   </varray>
  </structure>
  <varray name="forces" >
   <v>       0.00000000       0.00000000      -0.04061012 </v>
   <v>      -0.00000000      -0.00000000       0.04061012 </v>
  </varray>
  <varray name="stress" >
   <v>      -0.65644811      -0.00000000       0.00000000 </v>
   <v>      -0.00000000      -0.65644811      -0.00000000 </v>
   <v>       0.00000000      -0.00000000      -0.02493787 </v>
  </varray>
  <energy>
   <i name="e_fr_energy">     -7.29709949 </i>
   <i name="e_wo_entrp">     -7.11733791 </i>
   <i name="e_0_energy">     -7.20721870 </i>
  </energy>
  <time name="totalsc">    2.47    2.52</time>
  <eigenvalues>
   <array>
    <dimension dim="1">band</dimension>
    <dimension dim="2">kpoint</dimension>
    <dimension dim="3">spin</dimension>
    <field>eigene</field>
    <field>occ</field>
    <set>
     <set comment="spin 1">
      <set comment="kpoint 1">
       <r>  -24.8489    1.0000 </r>
       <r>  -11.4034    1.0000 </r>
       <r>   -8.2164    0.7500 </r>
       <r>   -8.2164    0.7500 </r>
       <r>   -0.8016    0.0000 </r>
       <r>    0.0103    0.0000 </r>
       <r>    0.2979    0.0000 </r>
       <r>    0.2979    0.0000 </r>
       <r>    0.3037    0.0000 </r>
       <r>    0.3403    0.0000 </r>
      </set>
     </set>
    </set>
   </array>
  </eigenvalues>
  <separator name="orbital magnetization" >
   <v name="MAGDIPOLOUT">      0.00000000      0.00000000      0.00000000</v>
  </separator>
  <dos>
   <i name="efermi">     -8.12097993 </i>
   <total>
    <array>
     <dimension dim="1">gridpoints</dimension>
     <dimension dim="2">spin</dimension>
     <field>energy</field>
     <field>total</field>
     <field>integrated</field>
     <set>
      <set comment="spin 1">
       <r>   -26.8489     0.0000     0.0000 </r>
       <r>   -26.7516     0.0000     0.0000 </r>
       <r>   -26.6543     0.0000     0.0000 </r>
       <r>   -26.5570     0.0000     0.0000 </r>
       <r>   -26.4597     0.0000     0.0000 </r>
       <r>   -26.3624     0.0000     0.0000 </r>
       <r>   -26.2651     0.0000     0.0000 </r>
       <r>   -26.1678     0.0000     0.0000 </r>
       <r>   -26.0705     0.0000     0.0000 </r>
       <r>   -25.9732     0.0000     0.0000 </r>
       <r>   -25.8759     0.0000     0.0000 </r>
       <r>   -25.7786     0.0000     0.0000 </r>
       <r>   -25.6813     0.0000     0.0000 </r>
       <r>   -25.5840     0.0000     0.0000 </r>
       <r>   -25.4867     0.0001     0.0000 </r>
       <r>   -25.3894     0.0013     0.0001 </r>
       <r>   -25.2921     0.0164     0.0017 </r>
       <r>   -25.1948     0.1307     0.0144 </r>
       <r>   -25.0975     0.6606     0.0787 </r>
       <r>   -25.0002     2.1152     0.2845 </r>
       <r>   -24.9029     4.2938     0.7023 </r>
       <r>   -24.8056     5.5287     1.2402 </r>
       <r>   -24.7083     4.5165     1.6797 </r>
       <r>   -24.6110     2.3405     1.9074 </r>
       <r>   -24.5137     0.7690     1.9822 </r>
       <r>   -24.4164     0.1600     1.9978 </r>
       <r>   -24.3191     0.0211     1.9998 </r>
       <r>   -24.2218     0.0018     2.0000 </r>
       <r>   -24.1245     0.0001     2.0000 </r>
       <r>   -24.0272     0.0000     2.0000 </r>
       <r>   -23.9299     0.0000     2.0000 </r>
       <r>   -23.8326     0.0000     2.0000 </r>
       <r>   -23.7353     0.0000     2.0000 </r>
       <r>   -23.6380     0.0000     2.0000 </r>
       <r>   -23.5408     0.0000     2.0000 </r>
       <r>   -23.4435     0.0000     2.0000 </r>
       <r>   -23.3462     0.0000     2.0000 </r>
       <r>   -23.2489     0.0000     2.0000 </r>
       <r>   -23.1516     0.0000     2.0000 </r>
       <r>   -23.0543     0.0000     2.0000 </r>
       <r>   -22.9570     0.0000     2.0000 </r>
       <r>   -22.8597     0.0000     2.0000 </r>
       <r>   -22.7624     0.0000     2.0000 </r>
       <r>   -22.6651     0.0000     2.0000 </r>
       <r>   -22.5678     0.0000     2.0000 </r>
       <r>   -22.4705     0.0000     2.0000 </r>
       <r>   -22.3732     0.0000     2.0000 </r>
       <r>   -22.2759     0.0000     2.0000 </r>
       <r>   -22.1786     0.0000     2.0000 </r>
       <r>   -22.0813     0.0000     2.0000 </r>
       <r>   -21.9840     0.0000     2.0000 </r>
       <r>   -21.8867     0.0000     2.0000 </r>
       <r>   -21.7894     0.0000     2.0000 </r>
       <r>   -21.6921     0.0000     2.0000 </r>
       <r>   -21.5948     0.0000     2.0000 </r>
       <r>   -21.4975     0.0000     2.0000 </r>
       <r>   -21.4002     0.0000     2.0000 </r>
       <r>   -21.3029     0.0000     2.0000 </r>
       <r>   -21.2056     0.0000     2.0000 </r>
       <r>   -21.1083     0.0000     2.0000 </r>
       <r>   -21.0110     0.0000     2.0000 </r>
       <r>   -20.9137     0.0000     2.0000 </r>
       <r>   -20.8164     0.0000     2.0000 </r>
       <r>   -20.7191     0.0000     2.0000 </r>
       <r>   -20.6218     0.0000     2.0000 </r>
       <r>   -20.5245     0.0000     2.0000 </r>
       <r>   -20.4272     0.0000     2.0000 </r>
       <r>   -20.3299     0.0000     2.0000 </r>
       <r>   -20.2326     0.0000     2.0000 </r>
       <r>   -20.1354     0.0000     2.0000 </r>
       <r>   -20.0381     0.0000     2.0000 </r>
       <r>   -19.9408     0.0000     2.0000 </r>
       <r>   -19.8435     0.0000     2.0000 </r>
       <r>   -19.7462     0.0000     2.0000 </r>
       <r>   -19.6489     0.0000     2.0000 </r>
       <r>   -19.5516     0.0000     2.0000 </r>
       <r>   -19.4543     0.0000     2.0000 </r>
       <r>   -19.3570     0.0000     2.0000 </r>
       <r>   -19.2597     0.0000     2.0000 </r>
       <r>   -19.1624     0.0000     2.0000 </r>
       <r>   -19.0651     0.0000     2.0000 </r>
       <r>   -18.9678     0.0000     2.0000 </r>
       <r>   -18.8705     0.0000     2.0000 </r>
       <r>   -18.7732     0.0000     2.0000 </r>
       <r>   -18.6759     0.0000     2.0000 </r>
       <r>   -18.5786     0.0000     2.0000 </r>
       <r>   -18.4813     0.0000     2.0000 </r>
       <r>   -18.3840     0.0000     2.0000 </r>
       <r>   -18.2867     0.0000     2.0000 </r>
       <r>   -18.1894     0.0000     2.0000 </r>
       <r>   -18.0921     0.0000     2.0000 </r>
       <r>   -17.9948     0.0000     2.0000 </r>
       <r>   -17.8975     0.0000     2.0000 </r>
       <r>   -17.8002     0.0000     2.0000 </r>
       <r>   -17.7029     0.0000     2.0000 </r>
       <r>   -17.6056     0.0000     2.0000 </r>
       <r>   -17.5083     0.0000     2.0000 </r>
       <r>   -17.4110     0.0000     2.0000 </r>
       <r>   -17.3137     0.0000     2.0000 </r>
       <r>   -17.2164     0.0000     2.0000 </r>
       <r>   -17.1191     0.0000     2.0000 </r>
       <r>   -17.0218     0.0000     2.0000 </r>
       <r>   -16.9245     0.0000     2.0000 </r>
       <r>   -16.8272     0.0000     2.0000 </r>
       <r>   -16.7299     0.0000     2.0000 </r>
       <r>   -16.6327     0.0000     2.0000 </r>
       <r>   -16.5354     0.0000     2.0000 </r>
       <r>   -16.4381     0.0000     2.0000 </r>
       <r>   -16.3408     0.0000     2.0000 </r>
       <r>   -16.2435     0.0000     2.0000 </r>
       <r>   -16.1462     0.0000     2.0000 </r>
       <r>   -16.0489     0.0000     2.0000 </r>
       <r>   -15.9516     0.0000     2.0000 </r>
       <r>   -15.8543     0.0000     2.0000 </r>
       <r>   -15.7570     0.0000     2.0000 </r>
       <r>   -15.6597     0.0000     2.0000 </r>
       <r>   -15.5624     0.0000     2.0000 </r>
       <r>   -15.4651     0.0000     2.0000 </r>
       <r>   -15.3678     0.0000     2.0000 </r>
       <r>   -15.2705     0.0000     2.0000 </r>
       <r>   -15.1732     0.0000     2.0000 </r>
       <r>   -15.0759     0.0000     2.0000 </r>
       <r>   -14.9786     0.0000     2.0000 </r>
       <r>   -14.8813     0.0000     2.0000 </r>
       <r>   -14.7840     0.0000     2.0000 </r>
       <r>   -14.6867     0.0000     2.0000 </r>
       <r>   -14.5894     0.0000     2.0000 </r>
       <r>   -14.4921     0.0000     2.0000 </r>
       <r>   -14.3948     0.0000     2.0000 </r>
       <r>   -14.2975     0.0000     2.0000 </r>
       <r>   -14.2002     0.0000     2.0000 </r>
       <r>   -14.1029     0.0000     2.0000 </r>
       <r>   -14.0056     0.0000     2.0000 </r>
       <r>   -13.9083     0.0000     2.0000 </r>
       <r>   -13.8110     0.0000     2.0000 </r>
       <r>   -13.7137     0.0000     2.0000 </r>
       <r>   -13.6164     0.0000     2.0000 </r>
       <r>   -13.5191     0.0000     2.0000 </r>
       <r>   -13.4218     0.0000     2.0000 </r>
       <r>   -13.3245     0.0000     2.0000 </r>
       <r>   -13.2273     0.0000     2.0000 </r>
       <r>   -13.1300     0.0000     2.0000 </r>
       <r>   -13.0327     0.0000     2.0000 </r>
       <r>   -12.9354     0.0000     2.0000 </r>
       <r>   -12.8381     0.0000     2.0000 </r>
       <r>   -12.7408     0.0000     2.0000 </r>
       <r>   -12.6435     0.0000     2.0000 </r>
       <r>   -12.5462     0.0000     2.0000 </r>
       <r>   -12.4489     0.0000     2.0000 </r>
       <r>   -12.3516     0.0000     2.0000 </r>
       <r>   -12.2543     0.0000     2.0000 </r>
       <r>   -12.1570     0.0000     2.0000 </r>
       <r>   -12.0597     0.0000     2.0000 </r>
       <r>   -11.9624     0.0008     2.0001 </r>
       <r>   -11.8651     0.0105     2.0011 </r>
       <r>   -11.7678     0.0913     2.0100 </r>
       <r>   -11.6705     0.5032     2.0589 </r>
       <r>   -11.5732     1.7569     2.2299 </r>
       <r>   -11.4759     3.8881     2.6082 </r>
       <r>   -11.3786     5.4574     3.1392 </r>
       <r>   -11.2813     4.8600     3.6120 </r>
       <r>   -11.1840     2.7455     3.8792 </r>
       <r>   -11.0867     0.9835     3.9749 </r>
       <r>   -10.9894     0.2232     3.9966 </r>
       <r>   -10.8921     0.0321     3.9997 </r>
       <r>   -10.7948     0.0029     4.0000 </r>
       <r>   -10.6975     0.0002     4.0000 </r>
       <r>   -10.6002     0.0000     4.0000 </r>
       <r>   -10.5029     0.0000     4.0000 </r>
       <r>   -10.4056     0.0000     4.0000 </r>
       <r>   -10.3083     0.0000     4.0000 </r>
       <r>   -10.2110     0.0000     4.0000 </r>
       <r>   -10.1137     0.0000     4.0000 </r>
       <r>   -10.0164     0.0000     4.0000 </r>
       <r>    -9.9191     0.0000     4.0000 </r>
       <r>    -9.8219     0.0000     4.0000 </r>
       <r>    -9.7246     0.0000     4.0000 </r>
       <r>    -9.6273     0.0000     4.0000 </r>
       <r>    -9.5300     0.0000     4.0000 </r>
       <r>    -9.4327     0.0000     4.0000 </r>
       <r>    -9.3354     0.0000     4.0000 </r>
       <r>    -9.2381     0.0000     4.0000 </r>
       <r>    -9.1408     0.0000     4.0000 </r>
       <r>    -9.0435     0.0000     4.0000 </r>
       <r>    -8.9462     0.0000     4.0000 </r>
       <r>    -8.8489     0.0002     4.0000 </r>
       <r>    -8.7516     0.0030     4.0003 </r>
       <r>    -8.6543     0.0371     4.0039 </r>
       <r>    -8.5570     0.2890     4.0320 </r>
       <r>    -8.4597     1.4248     4.1707 </r>
       <r>    -8.3624     4.4498     4.6036 </r>
       <r>    -8.2651     8.8104     5.4608 </r>
       <r>    -8.1678    11.0651     6.5375 </r>
       <r>    -8.0705     8.8170     7.3953 </r>
       <r>    -7.9732     4.4565     7.8289 </r>
       <r>    -7.8759     1.4280     7.9679 </r>
       <r>    -7.7786     0.2898     7.9961 </r>
       <r>    -7.6813     0.0372     7.9997 </r>
       <r>    -7.5840     0.0030     8.0000 </r>
       <r>    -7.4867     0.0002     8.0000 </r>
       <r>    -7.3894     0.0000     8.0000 </r>
       <r>    -7.2921     0.0000     8.0000 </r>
       <r>    -7.1948     0.0000     8.0000 </r>
       <r>    -7.0975     0.0000     8.0000 </r>
       <r>    -7.0002     0.0000     8.0000 </r>
       <r>    -6.9029     0.0000     8.0000 </r>
       <r>    -6.8056     0.0000     8.0000 </r>
       <r>    -6.7083     0.0000     8.0000 </r>
       <r>    -6.6110     0.0000     8.0000 </r>
       <r>    -6.5137     0.0000     8.0000 </r>
       <r>    -6.4164     0.0000     8.0000 </r>
       <r>    -6.3192     0.0000     8.0000 </r>
       <r>    -6.2219     0.0000     8.0000 </r>
       <r>    -6.1246     0.0000     8.0000 </r>
       <r>    -6.0273     0.0000     8.0000 </r>
       <r>    -5.9300     0.0000     8.0000 </r>
       <r>    -5.8327     0.0000     8.0000 </r>
       <r>    -5.7354     0.0000     8.0000 </r>
       <r>    -5.6381     0.0000     8.0000 </r>
       <r>    -5.5408     0.0000     8.0000 </r>
       <r>    -5.4435     0.0000     8.0000 </r>
       <r>    -5.3462     0.0000     8.0000 </r>
       <r>    -5.2489     0.0000     8.0000 </r>
       <r>    -5.1516     0.0000     8.0000 </r>
       <r>    -5.0543     0.0000     8.0000 </r>
       <r>    -4.9570     0.0000     8.0000 </r>
       <r>    -4.8597     0.0000     8.0000 </r>
       <r>    -4.7624     0.0000     8.0000 </r>
       <r>    -4.6651     0.0000     8.0000 </r>
       <r>    -4.5678     0.0000     8.0000 </r>
       <r>    -4.4705     0.0000     8.0000 </r>
       <r>    -4.3732     0.0000     8.0000 </r>
       <r>    -4.2759     0.0000     8.0000 </r>
       <r>    -4.1786     0.0000     8.0000 </r>
       <r>    -4.0813     0.0000     8.0000 </r>
       <r>    -3.9840     0.0000     8.0000 </r>
       <r>    -3.8867     0.0000     8.0000 </r>
       <r>    -3.7894     0.0000     8.0000 </r>
       <r>    -3.6921     0.0000     8.0000 </r>
       <r>    -3.5948     0.0000     8.0000 </r>
       <r>    -3.4975     0.0000     8.0000 </r>
       <r>    -3.4002     0.0000     8.0000 </r>
       <r>    -3.3029     0.0000     8.0000 </r>
       <r>    -3.2056     0.0000     8.0000 </r>
       <r>    -3.1083     0.0000     8.0000 </r>
       <r>    -3.0110     0.0000     8.0000 </r>
       <r>    -2.9138     0.0000     8.0000 </r>
       <r>    -2.8165     0.0000     8.0000 </r>
       <r>    -2.7192     0.0000     8.0000 </r>
       <r>    -2.6219     0.0000     8.0000 </r>
       <r>    -2.5246     0.0000     8.0000 </r>
       <r>    -2.4273     0.0000     8.0000 </r>
       <r>    -2.3300     0.0000     8.0000 </r>
       <r>    -2.2327     0.0000     8.0000 </r>
       <r>    -2.1354     0.0000     8.0000 </r>
       <r>    -2.0381     0.0000     8.0000 </r>
       <r>    -1.9408     0.0000     8.0000 </r>
       <r>    -1.8435     0.0000     8.0000 </r>
       <r>    -1.7462     0.0000     8.0000 </r>
       <r>    -1.6489     0.0000     8.0000 </r>
       <r>    -1.5516     0.0000     8.0000 </r>
       <r>    -1.4543     0.0000     8.0000 </r>
       <r>    -1.3570     0.0008     8.0001 </r>
       <r>    -1.2597     0.0114     8.0012 </r>
       <r>    -1.1624     0.0980     8.0107 </r>
       <r>    -1.0651     0.5313     8.0624 </r>
       <r>    -0.9678     1.8240     8.2399 </r>
       <r>    -0.8705     3.9691     8.6261 </r>
       <r>    -0.7732     5.4783     9.1591 </r>
       <r>    -0.6759     4.7972     9.6259 </r>
       <r>    -0.5786     2.6652     9.8852 </r>
       <r>    -0.4813     0.9435     9.9770 </r>
       <r>    -0.3840     0.2587    10.0022 </r>
       <r>    -0.2867     0.3433    10.0356 </r>
       <r>    -0.1894     1.2759    10.1597 </r>
       <r>    -0.0921     3.3738    10.4880 </r>
       <r>     0.0052     6.2973    11.1007 </r>
       <r>     0.1025     9.9310    12.0669 </r>
       <r>     0.1998    15.5307    13.5780 </r>
       <r>     0.2971    21.5059    15.6705 </r>
       <r>     0.3944    21.6746    17.7793 </r>
       <r>     0.4916    14.4954    19.1897 </r>
       <r>     0.5889     6.2560    19.7984 </r>
       <r>     0.6862     1.7294    19.9667 </r>
       <r>     0.7835     0.3055    19.9964 </r>
       <r>     0.8808     0.0344    19.9997 </r>
       <r>     0.9781     0.0025    20.0000 </r>
       <r>     1.0754     0.0001    20.0000 </r>
       <r>     1.1727     0.0000    20.0000 </r>
       <r>     1.2700     0.0000    20.0000 </r>
       <r>     1.3673     0.0000    20.0000 </r>
       <r>     1.4646     0.0000    20.0000 </r>
       <r>     1.5619     0.0000    20.0000 </r>
       <r>     1.6592     0.0000    20.0000 </r>
       <r>     1.7565     0.0000    20.0000 </r>
       <r>     1.8538     0.0000    20.0000 </r>
       <r>     1.9511     0.0000    20.0000 </r>
       <r>     2.0484     0.0000    20.0000 </r>
       <r>     2.1457     0.0000    20.0000 </r>
       <r>     2.2430     0.0000    20.0000 </r>
       <r>     2.3403     0.0000    20.0000 </r>
      </set>
     </set>
    </array>
   </total>
   <partial>
    <array>
     <dimension dim="1">gridpoints</dimension>
     <dimension dim="2">spin</dimension>
     <dimension dim="3">ion</dimension>
     <field>energy</field>
     <field>  s  </field>
     <field>  p  </field>
     <field>  d  </field>
     <set>
      <set comment="ion 1">
       <set comment="spin 1">
        <r>   -26.8489     0.0000     0.0000     0.0000 </r>
        <r>   -26.7516     0.0000     0.0000     0.0000 </r>
        <r>   -26.6543     0.0000     0.0000     0.0000 </r>
        <r>   -26.5570     0.0000     0.0000     0.0000 </r>
        <r>   -26.4597     0.0000     0.0000     0.0000 </r>
        <r>   -26.3624     0.0000     0.0000     0.0000 </r>
        <r>   -26.2651     0.0000     0.0000     0.0000 </r>
        <r>   -26.1678     0.0000     0.0000     0.0000 </r>
        <r>   -26.0705     0.0000     0.0000     0.0000 </r>
        <r>   -25.9732     0.0000     0.0000     0.0000 </r>
        <r>   -25.8759     0.0000     0.0000     0.0000 </r>
        <r>   -25.7786     0.0000     0.0000     0.0000 </r>
        <r>   -25.6813     0.0000     0.0000     0.0000 </r>
        <r>   -25.5840     0.0000     0.0000     0.0000 </r>
        <r>   -25.4867     0.0000     0.0000     0.0000 </r>
        <r>   -25.3894     0.0009     0.0000     0.0000 </r>
        <r>   -25.2921     0.0119     0.0006     0.0000 </r>
        <r>   -25.1948     0.0953     0.0047     0.0000 </r>
        <r>   -25.0975     0.4817     0.0237     0.0000 </r>
        <r>   -25.0002     1.5423     0.0760     0.0000 </r>
        <r>   -24.9029     3.1307     0.1542     0.0000 </r>
        <r>   -24.8056     4.0311     0.1985     0.0000 </r>
        <r>   -24.7083     3.2931     0.1622     0.0000 </r>
        <r>   -24.6110     1.7065     0.0841     0.0000 </r>
        <r>   -24.5137     0.5607     0.0276     0.0000 </r>
        <r>   -24.4164     0.1167     0.0057     0.0000 </r>
        <r>   -24.3191     0.0154     0.0008     0.0000 </r>
        <r>   -24.2218     0.0013     0.0001     0.0000 </r>
        <r>   -24.1245     0.0001     0.0000     0.0000 </r>
        <r>   -24.0272     0.0000     0.0000     0.0000 </r>
        <r>   -23.9299     0.0000     0.0000     0.0000 </r>
        <r>   -23.8326     0.0000     0.0000     0.0000 </r>
        <r>   -23.7353     0.0000     0.0000     0.0000 </r>
        <r>   -23.6380     0.0000     0.0000     0.0000 </r>
        <r>   -23.5408     0.0000     0.0000     0.0000 </r>
        <r>   -23.4435     0.0000     0.0000     0.0000 </r>
        <r>   -23.3462     0.0000     0.0000     0.0000 </r>
        <r>   -23.2489     0.0000     0.0000     0.0000 </r>
        <r>   -23.1516     0.0000     0.0000     0.0000 </r>
        <r>   -23.0543     0.0000     0.0000     0.0000 </r>
        <r>   -22.9570     0.0000     0.0000     0.0000 </r>
        <r>   -22.8597     0.0000     0.0000     0.0000 </r>
        <r>   -22.7624     0.0000     0.0000     0.0000 </r>
        <r>   -22.6651     0.0000     0.0000     0.0000 </r>
        <r>   -22.5678     0.0000     0.0000     0.0000 </r>
        <r>   -22.4705     0.0000     0.0000     0.0000 </r>
        <r>   -22.3732     0.0000     0.0000     0.0000 </r>
        <r>   -22.2759     0.0000     0.0000     0.0000 </r>
        <r>   -22.1786     0.0000     0.0000     0.0000 </r>
        <r>   -22.0813     0.0000     0.0000     0.0000 </r>
        <r>   -21.9840     0.0000     0.0000     0.0000 </r>
        <r>   -21.8867     0.0000     0.0000     0.0000 </r>
        <r>   -21.7894     0.0000     0.0000     0.0000 </r>
        <r>   -21.6921     0.0000     0.0000     0.0000 </r>
        <r>   -21.5948     0.0000     0.0000     0.0000 </r>
        <r>   -21.4975     0.0000     0.0000     0.0000 </r>
        <r>   -21.4002     0.0000     0.0000     0.0000 </r>
        <r>   -21.3029     0.0000     0.0000     0.0000 </r>
        <r>   -21.2056     0.0000     0.0000     0.0000 </r>
        <r>   -21.1083     0.0000     0.0000     0.0000 </r>
        <r>   -21.0110     0.0000     0.0000     0.0000 </r>
        <r>   -20.9137     0.0000     0.0000     0.0000 </r>
        <r>   -20.8164     0.0000     0.0000     0.0000 </r>
        <r>   -20.7191     0.0000     0.0000     0.0000 </r>
        <r>   -20.6218     0.0000     0.0000     0.0000 </r>
        <r>   -20.5245     0.0000     0.0000     0.0000 </r>
        <r>   -20.4272     0.0000     0.0000     0.0000 </r>
        <r>   -20.3299     0.0000     0.0000     0.0000 </r>
        <r>   -20.2326     0.0000     0.0000     0.0000 </r>
        <r>   -20.1354     0.0000     0.0000     0.0000 </r>
        <r>   -20.0381     0.0000     0.0000     0.0000 </r>
        <r>   -19.9408     0.0000     0.0000     0.0000 </r>
        <r>   -19.8435     0.0000     0.0000     0.0000 </r>
        <r>   -19.7462     0.0000     0.0000     0.0000 </r>
        <r>   -19.6489     0.0000     0.0000     0.0000 </r>
        <r>   -19.5516     0.0000     0.0000     0.0000 </r>
        <r>   -19.4543     0.0000     0.0000     0.0000 </r>
        <r>   -19.3570     0.0000     0.0000     0.0000 </r>
        <r>   -19.2597     0.0000     0.0000     0.0000 </r>
        <r>   -19.1624     0.0000     0.0000     0.0000 </r>
        <r>   -19.0651     0.0000     0.0000     0.0000 </r>
        <r>   -18.9678     0.0000     0.0000     0.0000 </r>
        <r>   -18.8705     0.0000     0.0000     0.0000 </r>
        <r>   -18.7732     0.0000     0.0000     0.0000 </r>
        <r>   -18.6759     0.0000     0.0000     0.0000 </r>
        <r>   -18.5786     0.0000     0.0000     0.0000 </r>
        <r>   -18.4813     0.0000     0.0000     0.0000 </r>
        <r>   -18.3840     0.0000     0.0000     0.0000 </r>
        <r>   -18.2867     0.0000     0.0000     0.0000 </r>
        <r>   -18.1894     0.0000     0.0000     0.0000 </r>
        <r>   -18.0921     0.0000     0.0000     0.0000 </r>
        <r>   -17.9948     0.0000     0.0000     0.0000 </r>
        <r>   -17.8975     0.0000     0.0000     0.0000 </r>
        <r>   -17.8002     0.0000     0.0000     0.0000 </r>
        <r>   -17.7029     0.0000     0.0000     0.0000 </r>
        <r>   -17.6056     0.0000     0.0000     0.0000 </r>
        <r>   -17.5083     0.0000     0.0000     0.0000 </r>
        <r>   -17.4110     0.0000     0.0000     0.0000 </r>
        <r>   -17.3137     0.0000     0.0000     0.0000 </r>
        <r>   -17.2164     0.0000     0.0000     0.0000 </r>
        <r>   -17.1191     0.0000     0.0000     0.0000 </r>
        <r>   -17.0218     0.0000     0.0000     0.0000 </r>
        <r>   -16.9245     0.0000     0.0000     0.0000 </r>
        <r>   -16.8272     0.0000     0.0000     0.0000 </r>
        <r>   -16.7299     0.0000     0.0000     0.0000 </r>
        <r>   -16.6327     0.0000     0.0000     0.0000 </r>
        <r>   -16.5354     0.0000     0.0000     0.0000 </r>
        <r>   -16.4381     0.0000     0.0000     0.0000 </r>
        <r>   -16.3408     0.0000     0.0000     0.0000 </r>
        <r>   -16.2435     0.0000     0.0000     0.0000 </r>
        <r>   -16.1462     0.0000     0.0000     0.0000 </r>
        <r>   -16.0489     0.0000     0.0000     0.0000 </r>
        <r>   -15.9516     0.0000     0.0000     0.0000 </r>
        <r>   -15.8543     0.0000     0.0000     0.0000 </r>
        <r>   -15.7570     0.0000     0.0000     0.0000 </r>
        <r>   -15.6597     0.0000     0.0000     0.0000 </r>
        <r>   -15.5624     0.0000     0.0000     0.0000 </r>
        <r>   -15.4651     0.0000     0.0000     0.0000 </r>
        <r>   -15.3678     0.0000     0.0000     0.0000 </r>
        <r>   -15.2705     0.0000     0.0000     0.0000 </r>
        <r>   -15.1732     0.0000     0.0000     0.0000 </r>
        <r>   -15.0759     0.0000     0.0000     0.0000 </r>
        <r>   -14.9786     0.0000     0.0000     0.0000 </r>
        <r>   -14.8813     0.0000     0.0000     0.0000 </r>
        <r>   -14.7840     0.0000     0.0000     0.0000 </r>
        <r>   -14.6867     0.0000     0.0000     0.0000 </r>
        <r>   -14.5894     0.0000     0.0000     0.0000 </r>
        <r>   -14.4921     0.0000     0.0000     0.0000 </r>
        <r>   -14.3948     0.0000     0.0000     0.0000 </r>
        <r>   -14.2975     0.0000     0.0000     0.0000 </r>
        <r>   -14.2002     0.0000     0.0000     0.0000 </r>
        <r>   -14.1029     0.0000     0.0000     0.0000 </r>
        <r>   -14.0056     0.0000     0.0000     0.0000 </r>
        <r>   -13.9083     0.0000     0.0000     0.0000 </r>
        <r>   -13.8110     0.0000     0.0000     0.0000 </r>
        <r>   -13.7137     0.0000     0.0000     0.0000 </r>
        <r>   -13.6164     0.0000     0.0000     0.0000 </r>
        <r>   -13.5191     0.0000     0.0000     0.0000 </r>
        <r>   -13.4218     0.0000     0.0000     0.0000 </r>
        <r>   -13.3245     0.0000     0.0000     0.0000 </r>
        <r>   -13.2273     0.0000     0.0000     0.0000 </r>
        <r>   -13.1300     0.0000     0.0000     0.0000 </r>
        <r>   -13.0327     0.0000     0.0000     0.0000 </r>
        <r>   -12.9354     0.0000     0.0000     0.0000 </r>
        <r>   -12.8381     0.0000     0.0000     0.0000 </r>
        <r>   -12.7408     0.0000     0.0000     0.0000 </r>
        <r>   -12.6435     0.0000     0.0000     0.0000 </r>
        <r>   -12.5462     0.0000     0.0000     0.0000 </r>
        <r>   -12.4489     0.0000     0.0000     0.0000 </r>
        <r>   -12.3516     0.0000     0.0000     0.0000 </r>
        <r>   -12.2543     0.0000     0.0000     0.0000 </r>
        <r>   -12.1570     0.0000     0.0000     0.0000 </r>
        <r>   -12.0597     0.0000     0.0000     0.0000 </r>
        <r>   -11.9624     0.0001     0.0004     0.0000 </r>
        <r>   -11.8651     0.0008     0.0056     0.0000 </r>
        <r>   -11.7678     0.0071     0.0490     0.0000 </r>
        <r>   -11.6705     0.0391     0.2700     0.0000 </r>
        <r>   -11.5732     0.1365     0.9428     0.0000 </r>
        <r>   -11.4759     0.3021     2.0864     0.0000 </r>
        <r>   -11.3786     0.4240     2.9286     0.0000 </r>
        <r>   -11.2813     0.3776     2.6080     0.0000 </r>
        <r>   -11.1840     0.2133     1.4733     0.0000 </r>
        <r>   -11.0867     0.0764     0.5278     0.0000 </r>
        <r>   -10.9894     0.0173     0.1198     0.0000 </r>
        <r>   -10.8921     0.0025     0.0172     0.0000 </r>
        <r>   -10.7948     0.0002     0.0016     0.0000 </r>
        <r>   -10.6975     0.0000     0.0001     0.0000 </r>
        <r>   -10.6002     0.0000     0.0000     0.0000 </r>
        <r>   -10.5029     0.0000     0.0000     0.0000 </r>
        <r>   -10.4056     0.0000     0.0000     0.0000 </r>
        <r>   -10.3083     0.0000     0.0000     0.0000 </r>
        <r>   -10.2110     0.0000     0.0000     0.0000 </r>
        <r>   -10.1137     0.0000     0.0000     0.0000 </r>
        <r>   -10.0164     0.0000     0.0000     0.0000 </r>
        <r>    -9.9191     0.0000     0.0000     0.0000 </r>
        <r>    -9.8219     0.0000     0.0000     0.0000 </r>
        <r>    -9.7246     0.0000     0.0000     0.0000 </r>
        <r>    -9.6273     0.0000     0.0000     0.0000 </r>
        <r>    -9.5300     0.0000     0.0000     0.0000 </r>
        <r>    -9.4327     0.0000     0.0000     0.0000 </r>
        <r>    -9.3354     0.0000     0.0000     0.0000 </r>
        <r>    -9.2381     0.0000     0.0000     0.0000 </r>
        <r>    -9.1408     0.0000     0.0000     0.0000 </r>
        <r>    -9.0435     0.0000     0.0000     0.0000 </r>
        <r>    -8.9462     0.0000     0.0000     0.0000 </r>
        <r>    -8.8489     0.0000     0.0001     0.0000 </r>
        <r>    -8.7516     0.0000     0.0021     0.0000 </r>
        <r>    -8.6543     0.0000     0.0263     0.0000 </r>
        <r>    -8.5570     0.0000     0.2053     0.0000 </r>
        <r>    -8.4597     0.0000     1.0123     0.0000 </r>
        <r>    -8.3624     0.0000     3.1614     0.0000 </r>
        <r>    -8.2651     0.0000     6.2593     0.0000 </r>
        <r>    -8.1678     0.0000     7.8611     0.0000 </r>
        <r>    -8.0705     0.0000     6.2639     0.0000 </r>
        <r>    -7.9732     0.0000     3.1661     0.0000 </r>
        <r>    -7.8759     0.0000     1.0145     0.0000 </r>
        <r>    -7.7786     0.0000     0.2059     0.0000 </r>
        <r>    -7.6813     0.0000     0.0264     0.0000 </r>
        <r>    -7.5840     0.0000     0.0021     0.0000 </r>
        <r>    -7.4867     0.0000     0.0001     0.0000 </r>
        <r>    -7.3894     0.0000     0.0000     0.0000 </r>
        <r>    -7.2921     0.0000     0.0000     0.0000 </r>
        <r>    -7.1948     0.0000     0.0000     0.0000 </r>
        <r>    -7.0975     0.0000     0.0000     0.0000 </r>
        <r>    -7.0002     0.0000     0.0000     0.0000 </r>
        <r>    -6.9029     0.0000     0.0000     0.0000 </r>
        <r>    -6.8056     0.0000     0.0000     0.0000 </r>
        <r>    -6.7083     0.0000     0.0000     0.0000 </r>
        <r>    -6.6110     0.0000     0.0000     0.0000 </r>
        <r>    -6.5137     0.0000     0.0000     0.0000 </r>
        <r>    -6.4164     0.0000     0.0000     0.0000 </r>
        <r>    -6.3192     0.0000     0.0000     0.0000 </r>
        <r>    -6.2219     0.0000     0.0000     0.0000 </r>
        <r>    -6.1246     0.0000     0.0000     0.0000 </r>
        <r>    -6.0273     0.0000     0.0000     0.0000 </r>
        <r>    -5.9300     0.0000     0.0000     0.0000 </r>
        <r>    -5.8327     0.0000     0.0000     0.0000 </r>
        <r>    -5.7354     0.0000     0.0000     0.0000 </r>
        <r>    -5.6381     0.0000     0.0000     0.0000 </r>
        <r>    -5.5408     0.0000     0.0000     0.0000 </r>
        <r>    -5.4435     0.0000     0.0000     0.0000 </r>
        <r>    -5.3462     0.0000     0.0000     0.0000 </r>
        <r>    -5.2489     0.0000     0.0000     0.0000 </r>
        <r>    -5.1516     0.0000     0.0000     0.0000 </r>
        <r>    -5.0543     0.0000     0.0000     0.0000 </r>
        <r>    -4.9570     0.0000     0.0000     0.0000 </r>
        <r>    -4.8597     0.0000     0.0000     0.0000 </r>
        <r>    -4.7624     0.0000     0.0000     0.0000 </r>
        <r>    -4.6651     0.0000     0.0000     0.0000 </r>
        <r>    -4.5678     0.0000     0.0000     0.0000 </r>
        <r>    -4.4705     0.0000     0.0000     0.0000 </r>
        <r>    -4.3732     0.0000     0.0000     0.0000 </r>
        <r>    -4.2759     0.0000     0.0000     0.0000 </r>
        <r>    -4.1786     0.0000     0.0000     0.0000 </r>
        <r>    -4.0813     0.0000     0.0000     0.0000 </r>
        <r>    -3.9840     0.0000     0.0000     0.0000 </r>
        <r>    -3.8867     0.0000     0.0000     0.0000 </r>
        <r>    -3.7894     0.0000     0.0000     0.0000 </r>
        <r>    -3.6921     0.0000     0.0000     0.0000 </r>
        <r>    -3.5948     0.0000     0.0000     0.0000 </r>
        <r>    -3.4975     0.0000     0.0000     0.0000 </r>
        <r>    -3.4002     0.0000     0.0000     0.0000 </r>
        <r>    -3.3029     0.0000     0.0000     0.0000 </r>
        <r>    -3.2056     0.0000     0.0000     0.0000 </r>
        <r>    -3.1083     0.0000     0.0000     0.0000 </r>
        <r>    -3.0110     0.0000     0.0000     0.0000 </r>
        <r>    -2.9138     0.0000     0.0000     0.0000 </r>
        <r>    -2.8165     0.0000     0.0000     0.0000 </r>
        <r>    -2.7192     0.0000     0.0000     0.0000 </r>
        <r>    -2.6219     0.0000     0.0000     0.0000 </r>
        <r>    -2.5246     0.0000     0.0000     0.0000 </r>
        <r>    -2.4273     0.0000     0.0000     0.0000 </r>
        <r>    -2.3300     0.0000     0.0000     0.0000 </r>
        <r>    -2.2327     0.0000     0.0000     0.0000 </r>
        <r>    -2.1354     0.0000     0.0000     0.0000 </r>
        <r>    -2.0381     0.0000     0.0000     0.0000 </r>
        <r>    -1.9408     0.0000     0.0000     0.0000 </r>
        <r>    -1.8435     0.0000     0.0000     0.0000 </r>
        <r>    -1.7462     0.0000     0.0000     0.0000 </r>
        <r>    -1.6489     0.0000     0.0000     0.0000 </r>
        <r>    -1.5516     0.0000     0.0000     0.0000 </r>
        <r>    -1.4543     0.0000     0.0000     0.0000 </r>
        <r>    -1.3570     0.0000     0.0000     0.0000 </r>
        <r>    -1.2597     0.0002     0.0005     0.0000 </r>
        <r>    -1.1624     0.0020     0.0042     0.0000 </r>
        <r>    -1.0651     0.0107     0.0229     0.0000 </r>
        <r>    -0.9678     0.0366     0.0787     0.0000 </r>
        <r>    -0.8705     0.0797     0.1713     0.0000 </r>
        <r>    -0.7732     0.1100     0.2365     0.0000 </r>
        <r>    -0.6759     0.0963     0.2071     0.0000 </r>
        <r>    -0.5786     0.0535     0.1150     0.0000 </r>
        <r>    -0.4813     0.0189     0.0405     0.0000 </r>
        <r>    -0.3840     0.0042     0.0092     0.0000 </r>
        <r>    -0.2867     0.0008     0.0022     0.0000 </r>
        <r>    -0.1894     0.0010     0.0037     0.0000 </r>
        <r>    -0.0921     0.0023     0.0092     0.0000 </r>
        <r>     0.0052     0.0038     0.0158     0.0000 </r>
        <r>     0.1025     0.0042     0.0201     0.0000 </r>
        <r>     0.1998     0.0036     0.0228     0.0000 </r>
        <r>     0.2971     0.0029     0.0249     0.0000 </r>
        <r>     0.3944     0.0022     0.0221     0.0000 </r>
        <r>     0.4916     0.0013     0.0137     0.0000 </r>
        <r>     0.5889     0.0005     0.0055     0.0000 </r>
        <r>     0.6862     0.0001     0.0014     0.0000 </r>
        <r>     0.7835     0.0000     0.0002     0.0000 </r>
        <r>     0.8808     0.0000     0.0000     0.0000 </r>
        <r>     0.9781     0.0000     0.0000     0.0000 </r>
        <r>     1.0754     0.0000     0.0000     0.0000 </r>
        <r>     1.1727     0.0000     0.0000     0.0000 </r>
        <r>     1.2700     0.0000     0.0000     0.0000 </r>
        <r>     1.3673     0.0000     0.0000     0.0000 </r>
        <r>     1.4646     0.0000     0.0000     0.0000 </r>
        <r>     1.5619     0.0000     0.0000     0.0000 </r>
        <r>     1.6592     0.0000     0.0000     0.0000 </r>
        <r>     1.7565     0.0000     0.0000     0.0000 </r>
        <r>     1.8538     0.0000     0.0000     0.0000 </r>
        <r>     1.9511     0.0000     0.0000     0.0000 </r>
        <r>     2.0484     0.0000     0.0000     0.0000 </r>
        <r>     2.1457     0.0000     0.0000     0.0000 </r>
        <r>     2.2430     0.0000     0.0000     0.0000 </r>
        <r>     2.3403     0.0000     0.0000     0.0000 </r>
       </set>
      </set>
      <set comment="ion 2">
       <set comment="spin 1">
        <r>   -26.8489     0.0000     0.0000     0.0000 </r>
        <r>   -26.7516     0.0000     0.0000     0.0000 </r>
        <r>   -26.6543     0.0000     0.0000     0.0000 </r>
        <r>   -26.5570     0.0000     0.0000     0.0000 </r>
        <r>   -26.4597     0.0000     0.0000     0.0000 </r>
        <r>   -26.3624     0.0000     0.0000     0.0000 </r>
        <r>   -26.2651     0.0000     0.0000     0.0000 </r>
        <r>   -26.1678     0.0000     0.0000     0.0000 </r>
        <r>   -26.0705     0.0000     0.0000     0.0000 </r>
        <r>   -25.9732     0.0000     0.0000     0.0000 </r>
        <r>   -25.8759     0.0000     0.0000     0.0000 </r>
        <r>   -25.7786     0.0000     0.0000     0.0000 </r>
        <r>   -25.6813     0.0000     0.0000     0.0000 </r>
        <r>   -25.5840     0.0000     0.0000     0.0000 </r>
        <r>   -25.4867     0.0000     0.0000     0.0000 </r>
        <r>   -25.3894     0.0002     0.0000     0.0000 </r>
        <r>   -25.2921     0.0022     0.0001     0.0000 </r>
        <r>   -25.1948     0.0174     0.0008     0.0000 </r>
        <r>   -25.0975     0.0877     0.0039     0.0000 </r>
        <r>   -25.0002     0.2809     0.0126     0.0000 </r>
        <r>   -24.9029     0.5703     0.0255     0.0000 </r>
        <r>   -24.8056     0.7343     0.0329     0.0000 </r>
        <r>   -24.7083     0.5999     0.0269     0.0000 </r>
        <r>   -24.6110     0.3109     0.0139     0.0000 </r>
        <r>   -24.5137     0.1021     0.0046     0.0000 </r>
        <r>   -24.4164     0.0213     0.0010     0.0000 </r>
        <r>   -24.3191     0.0028     0.0001     0.0000 </r>
        <r>   -24.2218     0.0002     0.0000     0.0000 </r>
        <r>   -24.1245     0.0000     0.0000     0.0000 </r>
        <r>   -24.0272     0.0000     0.0000     0.0000 </r>
        <r>   -23.9299     0.0000     0.0000     0.0000 </r>
        <r>   -23.8326     0.0000     0.0000     0.0000 </r>
        <r>   -23.7353     0.0000     0.0000     0.0000 </r>
        <r>   -23.6380     0.0000     0.0000     0.0000 </r>
        <r>   -23.5408     0.0000     0.0000     0.0000 </r>
        <r>   -23.4435     0.0000     0.0000     0.0000 </r>
        <r>   -23.3462     0.0000     0.0000     0.0000 </r>
        <r>   -23.2489     0.0000     0.0000     0.0000 </r>
        <r>   -23.1516     0.0000     0.0000     0.0000 </r>
        <r>   -23.0543     0.0000     0.0000     0.0000 </r>
        <r>   -22.9570     0.0000     0.0000     0.0000 </r>
        <r>   -22.8597     0.0000     0.0000     0.0000 </r>
        <r>   -22.7624     0.0000     0.0000     0.0000 </r>
        <r>   -22.6651     0.0000     0.0000     0.0000 </r>
        <r>   -22.5678     0.0000     0.0000     0.0000 </r>
        <r>   -22.4705     0.0000     0.0000     0.0000 </r>
        <r>   -22.3732     0.0000     0.0000     0.0000 </r>
        <r>   -22.2759     0.0000     0.0000     0.0000 </r>
        <r>   -22.1786     0.0000     0.0000     0.0000 </r>
        <r>   -22.0813     0.0000     0.0000     0.0000 </r>
        <r>   -21.9840     0.0000     0.0000     0.0000 </r>
        <r>   -21.8867     0.0000     0.0000     0.0000 </r>
        <r>   -21.7894     0.0000     0.0000     0.0000 </r>
        <r>   -21.6921     0.0000     0.0000     0.0000 </r>
        <r>   -21.5948     0.0000     0.0000     0.0000 </r>
        <r>   -21.4975     0.0000     0.0000     0.0000 </r>
        <r>   -21.4002     0.0000     0.0000     0.0000 </r>
        <r>   -21.3029     0.0000     0.0000     0.0000 </r>
        <r>   -21.2056     0.0000     0.0000     0.0000 </r>
        <r>   -21.1083     0.0000     0.0000     0.0000 </r>
        <r>   -21.0110     0.0000     0.0000     0.0000 </r>
        <r>   -20.9137     0.0000     0.0000     0.0000 </r>
        <r>   -20.8164     0.0000     0.0000     0.0000 </r>
        <r>   -20.7191     0.0000     0.0000     0.0000 </r>
        <r>   -20.6218     0.0000     0.0000     0.0000 </r>
        <r>   -20.5245     0.0000     0.0000     0.0000 </r>
        <r>   -20.4272     0.0000     0.0000     0.0000 </r>
        <r>   -20.3299     0.0000     0.0000     0.0000 </r>
        <r>   -20.2326     0.0000     0.0000     0.0000 </r>
        <r>   -20.1354     0.0000     0.0000     0.0000 </r>
        <r>   -20.0381     0.0000     0.0000     0.0000 </r>
        <r>   -19.9408     0.0000     0.0000     0.0000 </r>
        <r>   -19.8435     0.0000     0.0000     0.0000 </r>
        <r>   -19.7462     0.0000     0.0000     0.0000 </r>
        <r>   -19.6489     0.0000     0.0000     0.0000 </r>
        <r>   -19.5516     0.0000     0.0000     0.0000 </r>
        <r>   -19.4543     0.0000     0.0000     0.0000 </r>
        <r>   -19.3570     0.0000     0.0000     0.0000 </r>
        <r>   -19.2597     0.0000     0.0000     0.0000 </r>
        <r>   -19.1624     0.0000     0.0000     0.0000 </r>
        <r>   -19.0651     0.0000     0.0000     0.0000 </r>
        <r>   -18.9678     0.0000     0.0000     0.0000 </r>
        <r>   -18.8705     0.0000     0.0000     0.0000 </r>
        <r>   -18.7732     0.0000     0.0000     0.0000 </r>
        <r>   -18.6759     0.0000     0.0000     0.0000 </r>
        <r>   -18.5786     0.0000     0.0000     0.0000 </r>
        <r>   -18.4813     0.0000     0.0000     0.0000 </r>
        <r>   -18.3840     0.0000     0.0000     0.0000 </r>
        <r>   -18.2867     0.0000     0.0000     0.0000 </r>
        <r>   -18.1894     0.0000     0.0000     0.0000 </r>
        <r>   -18.0921     0.0000     0.0000     0.0000 </r>
        <r>   -17.9948     0.0000     0.0000     0.0000 </r>
        <r>   -17.8975     0.0000     0.0000     0.0000 </r>
        <r>   -17.8002     0.0000     0.0000     0.0000 </r>
        <r>   -17.7029     0.0000     0.0000     0.0000 </r>
        <r>   -17.6056     0.0000     0.0000     0.0000 </r>
        <r>   -17.5083     0.0000     0.0000     0.0000 </r>
        <r>   -17.4110     0.0000     0.0000     0.0000 </r>
        <r>   -17.3137     0.0000     0.0000     0.0000 </r>
        <r>   -17.2164     0.0000     0.0000     0.0000 </r>
        <r>   -17.1191     0.0000     0.0000     0.0000 </r>
        <r>   -17.0218     0.0000     0.0000     0.0000 </r>
        <r>   -16.9245     0.0000     0.0000     0.0000 </r>
        <r>   -16.8272     0.0000     0.0000     0.0000 </r>
        <r>   -16.7299     0.0000     0.0000     0.0000 </r>
        <r>   -16.6327     0.0000     0.0000     0.0000 </r>
        <r>   -16.5354     0.0000     0.0000     0.0000 </r>
        <r>   -16.4381     0.0000     0.0000     0.0000 </r>
        <r>   -16.3408     0.0000     0.0000     0.0000 </r>
        <r>   -16.2435     0.0000     0.0000     0.0000 </r>
        <r>   -16.1462     0.0000     0.0000     0.0000 </r>
        <r>   -16.0489     0.0000     0.0000     0.0000 </r>
        <r>   -15.9516     0.0000     0.0000     0.0000 </r>
        <r>   -15.8543     0.0000     0.0000     0.0000 </r>
        <r>   -15.7570     0.0000     0.0000     0.0000 </r>
        <r>   -15.6597     0.0000     0.0000     0.0000 </r>
        <r>   -15.5624     0.0000     0.0000     0.0000 </r>
        <r>   -15.4651     0.0000     0.0000     0.0000 </r>
        <r>   -15.3678     0.0000     0.0000     0.0000 </r>
        <r>   -15.2705     0.0000     0.0000     0.0000 </r>
        <r>   -15.1732     0.0000     0.0000     0.0000 </r>
        <r>   -15.0759     0.0000     0.0000     0.0000 </r>
        <r>   -14.9786     0.0000     0.0000     0.0000 </r>
        <r>   -14.8813     0.0000     0.0000     0.0000 </r>
        <r>   -14.7840     0.0000     0.0000     0.0000 </r>
        <r>   -14.6867     0.0000     0.0000     0.0000 </r>
        <r>   -14.5894     0.0000     0.0000     0.0000 </r>
        <r>   -14.4921     0.0000     0.0000     0.0000 </r>
        <r>   -14.3948     0.0000     0.0000     0.0000 </r>
        <r>   -14.2975     0.0000     0.0000     0.0000 </r>
        <r>   -14.2002     0.0000     0.0000     0.0000 </r>
        <r>   -14.1029     0.0000     0.0000     0.0000 </r>
        <r>   -14.0056     0.0000     0.0000     0.0000 </r>
        <r>   -13.9083     0.0000     0.0000     0.0000 </r>
        <r>   -13.8110     0.0000     0.0000     0.0000 </r>
        <r>   -13.7137     0.0000     0.0000     0.0000 </r>
        <r>   -13.6164     0.0000     0.0000     0.0000 </r>
        <r>   -13.5191     0.0000     0.0000     0.0000 </r>
        <r>   -13.4218     0.0000     0.0000     0.0000 </r>
        <r>   -13.3245     0.0000     0.0000     0.0000 </r>
        <r>   -13.2273     0.0000     0.0000     0.0000 </r>
        <r>   -13.1300     0.0000     0.0000     0.0000 </r>
        <r>   -13.0327     0.0000     0.0000     0.0000 </r>
        <r>   -12.9354     0.0000     0.0000     0.0000 </r>
        <r>   -12.8381     0.0000     0.0000     0.0000 </r>
        <r>   -12.7408     0.0000     0.0000     0.0000 </r>
        <r>   -12.6435     0.0000     0.0000     0.0000 </r>
        <r>   -12.5462     0.0000     0.0000     0.0000 </r>
        <r>   -12.4489     0.0000     0.0000     0.0000 </r>
        <r>   -12.3516     0.0000     0.0000     0.0000 </r>
        <r>   -12.2543     0.0000     0.0000     0.0000 </r>
        <r>   -12.1570     0.0000     0.0000     0.0000 </r>
        <r>   -12.0597     0.0000     0.0000     0.0000 </r>
        <r>   -11.9624     0.0001     0.0000     0.0000 </r>
        <r>   -11.8651     0.0020     0.0000     0.0000 </r>
        <r>   -11.7678     0.0174     0.0003     0.0000 </r>
        <r>   -11.6705     0.0960     0.0015     0.0000 </r>
        <r>   -11.5732     0.3350     0.0051     0.0000 </r>
        <r>   -11.4759     0.7414     0.0112     0.0000 </r>
        <r>   -11.3786     1.0406     0.0158     0.0000 </r>
        <r>   -11.2813     0.9267     0.0141     0.0000 </r>
        <r>   -11.1840     0.5235     0.0079     0.0000 </r>
        <r>   -11.0867     0.1875     0.0028     0.0000 </r>
        <r>   -10.9894     0.0426     0.0006     0.0000 </r>
        <r>   -10.8921     0.0061     0.0001     0.0000 </r>
        <r>   -10.7948     0.0006     0.0000     0.0000 </r>
        <r>   -10.6975     0.0000     0.0000     0.0000 </r>
        <r>   -10.6002     0.0000     0.0000     0.0000 </r>
        <r>   -10.5029     0.0000     0.0000     0.0000 </r>
        <r>   -10.4056     0.0000     0.0000     0.0000 </r>
        <r>   -10.3083     0.0000     0.0000     0.0000 </r>
        <r>   -10.2110     0.0000     0.0000     0.0000 </r>
        <r>   -10.1137     0.0000     0.0000     0.0000 </r>
        <r>   -10.0164     0.0000     0.0000     0.0000 </r>
        <r>    -9.9191     0.0000     0.0000     0.0000 </r>
        <r>    -9.8219     0.0000     0.0000     0.0000 </r>
        <r>    -9.7246     0.0000     0.0000     0.0000 </r>
        <r>    -9.6273     0.0000     0.0000     0.0000 </r>
        <r>    -9.5300     0.0000     0.0000     0.0000 </r>
        <r>    -9.4327     0.0000     0.0000     0.0000 </r>
        <r>    -9.3354     0.0000     0.0000     0.0000 </r>
        <r>    -9.2381     0.0000     0.0000     0.0000 </r>
        <r>    -9.1408     0.0000     0.0000     0.0000 </r>
        <r>    -9.0435     0.0000     0.0000     0.0000 </r>
        <r>    -8.9462     0.0000     0.0000     0.0000 </r>
        <r>    -8.8489     0.0000     0.0000     0.0000 </r>
        <r>    -8.7516     0.0000     0.0000     0.0000 </r>
        <r>    -8.6543     0.0000     0.0003     0.0000 </r>
        <r>    -8.5570     0.0000     0.0026     0.0000 </r>
        <r>    -8.4597     0.0000     0.0130     0.0000 </r>
        <r>    -8.3624     0.0000     0.0405     0.0000 </r>
        <r>    -8.2651     0.0000     0.0802     0.0000 </r>
        <r>    -8.1678     0.0000     0.1008     0.0000 </r>
        <r>    -8.0705     0.0000     0.0803     0.0000 </r>
        <r>    -7.9732     0.0000     0.0406     0.0000 </r>
        <r>    -7.8759     0.0000     0.0130     0.0000 </r>
        <r>    -7.7786     0.0000     0.0026     0.0000 </r>
        <r>    -7.6813     0.0000     0.0003     0.0000 </r>
        <r>    -7.5840     0.0000     0.0000     0.0000 </r>
        <r>    -7.4867     0.0000     0.0000     0.0000 </r>
        <r>    -7.3894     0.0000     0.0000     0.0000 </r>
        <r>    -7.2921     0.0000     0.0000     0.0000 </r>
        <r>    -7.1948     0.0000     0.0000     0.0000 </r>
        <r>    -7.0975     0.0000     0.0000     0.0000 </r>
        <r>    -7.0002     0.0000     0.0000     0.0000 </r>
        <r>    -6.9029     0.0000     0.0000     0.0000 </r>
        <r>    -6.8056     0.0000     0.0000     0.0000 </r>
        <r>    -6.7083     0.0000     0.0000     0.0000 </r>
        <r>    -6.6110     0.0000     0.0000     0.0000 </r>
        <r>    -6.5137     0.0000     0.0000     0.0000 </r>
        <r>    -6.4164     0.0000     0.0000     0.0000 </r>
        <r>    -6.3192     0.0000     0.0000     0.0000 </r>
        <r>    -6.2219     0.0000     0.0000     0.0000 </r>
        <r>    -6.1246     0.0000     0.0000     0.0000 </r>
        <r>    -6.0273     0.0000     0.0000     0.0000 </r>
        <r>    -5.9300     0.0000     0.0000     0.0000 </r>
        <r>    -5.8327     0.0000     0.0000     0.0000 </r>
        <r>    -5.7354     0.0000     0.0000     0.0000 </r>
        <r>    -5.6381     0.0000     0.0000     0.0000 </r>
        <r>    -5.5408     0.0000     0.0000     0.0000 </r>
        <r>    -5.4435     0.0000     0.0000     0.0000 </r>
        <r>    -5.3462     0.0000     0.0000     0.0000 </r>
        <r>    -5.2489     0.0000     0.0000     0.0000 </r>
        <r>    -5.1516     0.0000     0.0000     0.0000 </r>
        <r>    -5.0543     0.0000     0.0000     0.0000 </r>
        <r>    -4.9570     0.0000     0.0000     0.0000 </r>
        <r>    -4.8597     0.0000     0.0000     0.0000 </r>
        <r>    -4.7624     0.0000     0.0000     0.0000 </r>
        <r>    -4.6651     0.0000     0.0000     0.0000 </r>
        <r>    -4.5678     0.0000     0.0000     0.0000 </r>
        <r>    -4.4705     0.0000     0.0000     0.0000 </r>
        <r>    -4.3732     0.0000     0.0000     0.0000 </r>
        <r>    -4.2759     0.0000     0.0000     0.0000 </r>
        <r>    -4.1786     0.0000     0.0000     0.0000 </r>
        <r>    -4.0813     0.0000     0.0000     0.0000 </r>
        <r>    -3.9840     0.0000     0.0000     0.0000 </r>
        <r>    -3.8867     0.0000     0.0000     0.0000 </r>
        <r>    -3.7894     0.0000     0.0000     0.0000 </r>
        <r>    -3.6921     0.0000     0.0000     0.0000 </r>
        <r>    -3.5948     0.0000     0.0000     0.0000 </r>
        <r>    -3.4975     0.0000     0.0000     0.0000 </r>
        <r>    -3.4002     0.0000     0.0000     0.0000 </r>
        <r>    -3.3029     0.0000     0.0000     0.0000 </r>
        <r>    -3.2056     0.0000     0.0000     0.0000 </r>
        <r>    -3.1083     0.0000     0.0000     0.0000 </r>
        <r>    -3.0110     0.0000     0.0000     0.0000 </r>
        <r>    -2.9138     0.0000     0.0000     0.0000 </r>
        <r>    -2.8165     0.0000     0.0000     0.0000 </r>
        <r>    -2.7192     0.0000     0.0000     0.0000 </r>
        <r>    -2.6219     0.0000     0.0000     0.0000 </r>
        <r>    -2.5246     0.0000     0.0000     0.0000 </r>
        <r>    -2.4273     0.0000     0.0000     0.0000 </r>
        <r>    -2.3300     0.0000     0.0000     0.0000 </r>
        <r>    -2.2327     0.0000     0.0000     0.0000 </r>
        <r>    -2.1354     0.0000     0.0000     0.0000 </r>
        <r>    -2.0381     0.0000     0.0000     0.0000 </r>
        <r>    -1.9408     0.0000     0.0000     0.0000 </r>
        <r>    -1.8435     0.0000     0.0000     0.0000 </r>
        <r>    -1.7462     0.0000     0.0000     0.0000 </r>
        <r>    -1.6489     0.0000     0.0000     0.0000 </r>
        <r>    -1.5516     0.0000     0.0000     0.0000 </r>
        <r>    -1.4543     0.0000     0.0000     0.0000 </r>
        <r>    -1.3570     0.0000     0.0000     0.0000 </r>
        <r>    -1.2597     0.0001     0.0001     0.0000 </r>
        <r>    -1.1624     0.0008     0.0013     0.0000 </r>
        <r>    -1.0651     0.0046     0.0069     0.0000 </r>
        <r>    -0.9678     0.0157     0.0236     0.0000 </r>
        <r>    -0.8705     0.0342     0.0514     0.0000 </r>
        <r>    -0.7732     0.0472     0.0709     0.0000 </r>
        <r>    -0.6759     0.0414     0.0621     0.0000 </r>
        <r>    -0.5786     0.0230     0.0345     0.0000 </r>
        <r>    -0.4813     0.0081     0.0122     0.0000 </r>
        <r>    -0.3840     0.0018     0.0027     0.0000 </r>
        <r>    -0.2867     0.0004     0.0006     0.0000 </r>
        <r>    -0.1894     0.0007     0.0010     0.0000 </r>
        <r>    -0.0921     0.0018     0.0024     0.0000 </r>
        <r>     0.0052     0.0029     0.0039     0.0000 </r>
        <r>     0.1025     0.0029     0.0040     0.0000 </r>
        <r>     0.1998     0.0019     0.0027     0.0000 </r>
        <r>     0.2971     0.0008     0.0012     0.0000 </r>
        <r>     0.3944     0.0003     0.0004     0.0000 </r>
        <r>     0.4916     0.0001     0.0001     0.0000 </r>
        <r>     0.5889     0.0000     0.0000     0.0000 </r>
        <r>     0.6862     0.0000     0.0000     0.0000 </r>
        <r>     0.7835     0.0000     0.0000     0.0000 </r>
        <r>     0.8808     0.0000     0.0000     0.0000 </r>
        <r>     0.9781     0.0000     0.0000     0.0000 </r>
        <r>     1.0754     0.0000     0.0000     0.0000 </r>
        <r>     1.1727     0.0000     0.0000     0.0000 </r>
        <r>     1.2700     0.0000     0.0000     0.0000 </r>
        <r>     1.3673     0.0000     0.0000     0.0000 </r>
        <r>     1.4646     0.0000     0.0000     0.0000 </r>
        <r>     1.5619     0.0000     0.0000     0.0000 </r>
        <r>     1.6592     0.0000     0.0000     0.0000 </r>
        <r>     1.7565     0.0000     0.0000     0.0000 </r>
        <r>     1.8538     0.0000     0.0000     0.0000 </r>
        <r>     1.9511     0.0000     0.0000     0.0000 </r>
        <r>     2.0484     0.0000     0.0000     0.0000 </r>
        <r>     2.1457     0.0000     0.0000     0.0000 </r>
        <r>     2.2430     0.0000     0.0000     0.0000 </r>
        <r>     2.3403     0.0000     0.0000     0.0000 </r>
       </set>
      </set>
     </set>
    </array>
   </partial>
  </dos>
  <projected>
   <eigenvalues>
    <array>
     <dimension dim="1">band</dimension>
     <dimension dim="2">kpoint</dimension>
     <dimension dim="3">spin</dimension>
     <field>eigene</field>
     <field>occ</field>
     <set>
      <set comment="spin 1">
       <set comment="kpoint 1">
        <r>  -24.8489    1.0000 </r>
        <r>  -11.4034    1.0000 </r>
        <r>   -8.2164    0.7500 </r>
        <r>   -8.2164    0.7500 </r>
        <r>   -0.8016    0.0000 </r>
        <r>    0.0103    0.0000 </r>
        <r>    0.2979    0.0000 </r>
        <r>    0.2979    0.0000 </r>
        <r>    0.3037    0.0000 </r>
        <r>    0.3403    0.0000 </r>
       </set>
      </set>
     </set>
    </array>
   </eigenvalues>
   <array>
    <dimension dim="1">ion</dimension>
    <dimension dim="2">band</dimension>
    <dimension dim="3">kpoint</dimension>
    <dimension dim="4">spin</dimension>
    <field>  s  </field>
    <field>  p  </field>
    <field>  d  </field>
    <set>
     <set comment="spin1">
      <set comment="kpoint 1">
       <set comment="band 1">
        <r>  0.7291  0.0359  0.0000 </r>
        <r>  0.1328  0.0060  0.0000 </r>
       </set>
       <set comment="band 2">
        <r>  0.0777  0.5366  0.0000 </r>
        <r>  0.1907  0.0029  0.0000 </r>
       </set>
       <set comment="band 3">
        <r>  0.0000  0.7104  0.0000 </r>
        <r>  0.0000  0.0091  0.0000 </r>
       </set>
       <set comment="band 4">
        <r>  0.0000  0.7104  0.0000 </r>
        <r>  0.0000  0.0091  0.0000 </r>
       </set>
       <set comment="band 5">
        <r>  0.0201  0.0432  0.0000 </r>
        <r>  0.0086  0.0129  0.0000 </r>
       </set>
       <set comment="band 6">
        <r>  0.0007  0.0028  0.0000 </r>
        <r>  0.0006  0.0007  0.0000 </r>
       </set>
       <set comment="band 7">
        <r>  0.0000  0.0017  0.0000 </r>
        <r>  0.0000  0.0000  0.0000 </r>
       </set>
       <set comment="band 8">
        <r>  0.0000  0.0017  0.0000 </r>
        <r>  0.0000  0.0000  0.0000 </r>
       </set>
       <set comment="band 9">
        <r>  0.0004  0.0006  0.0000 </r>
        <r>  0.0000  0.0000  0.0000 </r>
       </set>
       <set comment="band 10">
        <r>  0.0000  0.0000  0.0000 </r>
        <r>  0.0000  0.0000  0.0000 </r>
       </set>
      </set>
     </set>
    </set>
   </array>
  </projected>
 </calculation>
 <structure name="finalpos" >
  <crystal>
   <varray name="basis" >
    <v>      20.00000000       0.00000000       0.00000000 </v>
    <v>       0.00000000      20.00000000       0.00000000 </v>
    <v>       0.00000000       0.00000000      20.00000000 </v>
   </varray>
   <i name="volume">   8000.00000000 </i>
   <varray name="rec_basis" >
    <v>       0.05000000       0.00000000       0.00000000 </v>
    <v>       0.00000000       0.05000000       0.00000000 </v>
    <v>       0.00000000       0.00000000       0.05000000 </v>
   </varray>
  </crystal>
  <varray name="positions" >
   <v>       0.50000000       0.50000000       0.52459506 </v>
   <v>       0.50000000       0.50000000       0.47540494 </v>
  </varray>
 </structure>
</modeling>
