 running   40 mpi-ranks, on    1 nodes
 distrk:  each k-point on   40 cores,    1 groups
 distr:  one band on    4 cores,   10 groups
 vasp.6.4.3 19Mar24 (build Jul 09 2024 15:45:28) complex                        
  
 POSCAR found type information on POSCAR O H 
 POSCAR found :  2 types and       2 ions
 scaLAPACK will be used
 -----------------------------------------------------------------------------
|                                                                             |
|               ----> ADVICE to this user running VASP <----                  |
|                                                                             |
|     You have a (more or less) 'small supercell' and for smaller cells       |
|     it is recommended to use the reciprocal-space projection scheme!        |
|     The real-space optimization is not efficient for small cells and it     |
|     is also less accurate ...                                               |
|     Therefore, set LREAL=.FALSE. in the INCAR file.                         |
|                                                                             |
 -----------------------------------------------------------------------------

 -----------------------------------------------------------------------------
|                                                                             |
|           W    W    AA    RRRRR   N    N  II  N    N   GGGG   !!!           |
|           W    W   A  A   R    R  NN   N  II  NN   N  G    G  !!!           |
|           W    W  A    A  R    R  N N  N  II  N N  N  G       !!!           |
|           W WW W  AAAAAA  RRRRR   N  N N  II  N  N N  G  GGG   !            |
|           WW  WW  A    A  R   R   N   NN  II  N   NN  G    G                |
|           W    W  A    A  R    R  N    N  II  N    N   GGGG   !!!           |
|                                                                             |
|     The real-space projection scheme for the treatment of the non-local     |
|     pseudopotentials has been switched on but on file POTCAR I have not     |
|     found any entries, signalling me that you have never performed a        |
|     real-space optimization of all non-local projectors! BE WARNED that     |
|     a calculation using the real-space projection scheme together with      |
|     non-local projectors which were not real-space optimized (according     |
|     to the plane-wave cutoff used in this calculation) might give more      |
|     or less inaccurate results. I hope you know what you are doing.         |
|                                                                             |
 -----------------------------------------------------------------------------

 LDA part: xc-table for (Slater+PW92), standard interpolation
 POSCAR found type information on POSCAR O H 
 POSCAR found :  2 types and       2 ions
 POSCAR, INCAR and KPOINTS ok, starting setup
 FFT: planning ... GRIDC
 FFT: planning ... GRID_SOFT
 FFT: planning ... GRID
 WAVECAR not read
 WARNING: random wavefunctions but no delay for mixing, default for NELMDL
 entering main loop
       N       E                     dE             d eps       ncg     rms          rms(c)
DAV:   1     0.518821311508E+02    0.51882E+02   -0.10188E+03    40   0.201E+02
DAV:   2     0.539939729507E+01   -0.46483E+02   -0.45834E+02    40   0.675E+01
DAV:   3    -0.733139896003E+01   -0.12731E+02   -0.12720E+02    20   0.423E+01
DAV:   4    -0.779665522882E+01   -0.46526E+00   -0.43592E+00    20   0.104E+01
DAV:   5    -0.780383590826E+01   -0.71807E-02   -0.71775E-02    20   0.111E+00    0.453E+00
DAV:   6    -0.735701992676E+01    0.44682E+00   -0.15560E+00    20   0.641E+00    0.220E+00
DAV:   7    -0.730413006860E+01    0.52890E-01   -0.86779E-02    30   0.137E+00    0.119E+00
DAV:   8    -0.728094049950E+01    0.23190E-01   -0.15474E-02    20   0.102E+00    0.124E-01
DAV:   9    -0.728187444168E+01   -0.93394E-03   -0.35260E-03    40   0.260E-01    0.971E-02
DAV:  10    -0.728586685683E+01   -0.39924E-02   -0.16377E-03    40   0.260E-01    0.382E-02
DAV:  11    -0.728969804118E+01   -0.38312E-02   -0.13181E-03    40   0.164E-01    0.406E-02
DAV:  12    -0.729160945605E+01   -0.19114E-02   -0.49124E-04    20   0.107E-01    0.141E-02
DAV:  13    -0.729345219744E+01   -0.18427E-02   -0.24423E-04    20   0.739E-02    0.177E-02
DAV:  14    -0.729343939447E+01    0.12803E-04   -0.19482E-05    40   0.236E-02
   1 F= -.72934394E+01 E0= -.72035586E+01  d E =-.729344E+01
 curvature:   0.00 expect dE= 0.000E+00 dE for cont linesearch  0.000E+00
 trial: gam= 0.00000 g(F)=  0.494E-01 g(S)=  0.000E+00 ort = 0.000E+00 (trialstep = 0.100E+01)
 search vector abs. value=  0.494E-01
 bond charge predicted
       N       E                     dE             d eps       ncg     rms          rms(c)
DAV:   1    -0.724683971437E+01    0.46612E-01   -0.23585E+00    20   0.119E+01    0.825E-01
DAV:   2    -0.724955187026E+01   -0.27122E-02   -0.55845E-02    30   0.157E+00    0.443E-01
DAV:   3    -0.724974315026E+01   -0.19128E-03   -0.94710E-04    30   0.240E-01    0.167E-01
DAV:   4    -0.724996497341E+01   -0.22182E-03   -0.29637E-04    20   0.130E-01    0.175E-02
DAV:   5    -0.724999882180E+01   -0.33848E-04   -0.48824E-05    40   0.520E-02
   2 F= -.72499988E+01 E0= -.71601180E+01  d E =0.434406E-01
 trial-energy change:    0.043441  1 .order   -0.000682   -0.049447    0.048083
 step:   0.5070(harm=  0.5070)  dis= 0.00959  next Energy=    -7.305974 (dE=-0.125E-01)
 bond charge predicted
       N       E                     dE             d eps       ncg     rms          rms(c)
DAV:   1    -0.727656838164E+01   -0.26603E-01   -0.57134E-01    20   0.585E+00    0.428E-01
DAV:   2    -0.727727307153E+01   -0.70469E-03   -0.98161E-03    30   0.690E-01    0.239E-01
DAV:   3    -0.727742565075E+01   -0.15258E-03   -0.61348E-04    30   0.161E-01    0.556E-02
DAV:   4    -0.727743710514E+01   -0.11454E-04   -0.66280E-05    30   0.493E-02    0.988E-03
DAV:   5    -0.727744392514E+01   -0.68200E-05   -0.11073E-06    30   0.765E-03
   3 F= -.72774439E+01 E0= -.71875631E+01  d E =0.159955E-01
 curvature:  -0.25 expect dE=-0.255E-01 dE for cont linesearch -0.255E-01
 ZBRENT: interpolating
 opt :   0.2090  next Energy=    -7.298606 (dE=-0.517E-02)
 bond charge predicted
       N       E                     dE             d eps       ncg     rms          rms(c)
DAV:   1    -0.729532287034E+01   -0.17886E-01   -0.21196E-01    20   0.358E+00    0.244E-01
DAV:   2    -0.729557990545E+01   -0.25704E-03   -0.43713E-03    40   0.449E-01    0.133E-01
DAV:   3    -0.729558837015E+01   -0.84647E-05   -0.14043E-04    30   0.854E-02    0.399E-02
DAV:   4    -0.729559619615E+01   -0.78260E-05   -0.15573E-05    40   0.290E-02    0.566E-03
DAV:   5    -0.729560027422E+01   -0.40781E-05   -0.25703E-06    40   0.107E-02
   4 F= -.72956003E+01 E0= -.72057195E+01  d E =-.216088E-02
 curvature:  -0.05 expect dE=-0.114E-02 dE for cont linesearch -0.114E-02
 ZBRENT: interpolating
 opt :   0.1251  next Energy=    -7.296991 (dE=-0.355E-02)
 bond charge predicted
       N       E                     dE             d eps       ncg     rms          rms(c)
DAV:   1    -0.729707442270E+01   -0.14782E-02   -0.16898E-02    20   0.101E+00    0.580E-02
DAV:   2    -0.729709503975E+01   -0.20617E-04   -0.38689E-04    40   0.132E-01    0.297E-02
DAV:   3    -0.729709505695E+01   -0.17196E-07   -0.66411E-06    40   0.196E-02    0.121E-02
DAV:   4    -0.729709758076E+01   -0.25238E-05   -0.20594E-06    40   0.110E-02    0.148E-03
DAV:   5    -0.729709948772E+01   -0.19070E-05   -0.27163E-07    40   0.350E-03
   5 F= -.72970995E+01 E0= -.72072187E+01  d E =-.366009E-02
 curvature:  -0.06 expect dE=-0.299E-05 dE for cont linesearch -0.299E-05
 trial: gam= 0.00000 g(F)=  0.477E-04 g(S)=  0.000E+00 ort =-0.154E-02 (trialstep = 0.825E+00)
 search vector abs. value=  0.477E-04
 reached required accuracy - stopping structural energy minimisation
