unknown system                          
           1
    20.000000    0.000000    0.000000
     0.000000   20.000000    0.000000
     0.000000    0.000000   20.000000
   O    H 
     1     1
Direct configuration=     1
   0.50000000  0.50000000  0.52447675
   0.50000000  0.50000000  0.47552325
Direct configuration=     2
   0.50000000  0.50000000  0.52542256
   0.50000000  0.50000000  0.47457744
Direct configuration=     3
   0.50000000  0.50000000  0.52495627
   0.50000000  0.50000000  0.47504373
Direct configuration=     4
   0.50000000  0.50000000  0.52467439
   0.50000000  0.50000000  0.47532561
Direct configuration=     5
   0.50000000  0.50000000  0.52459506
   0.50000000  0.50000000  0.47540494
