66
Lattice="11.033086113260774 5.600493888326504e-08 2.5686178914223706e-08 5.516543105132088 9.554933067924482 1.9872236184885125e-07 0.0 0.0 37.15231387033118" Properties=species:S:1:pos:R:3:tags:I:1:initial_magmoms:R:1:forces:R:3 energy=-380.27001953125 free_energy=-380.27001953125 stress="0.0095683353766441 -2.6326628011758502e-06 -1.3583972762689002e-05 -2.6326628011758502e-06 0.009571365875466994 -7.844433449650926e-06 -1.3583972762689002e-05 -7.844433449650926e-06 0.001085117796877517" pbc="T T T"
Pt      -0.00000001       0.00000000       0.00000000        0       0.00000000       0.00033514       0.00019534       0.13152778
Pt       2.75827155       0.00000002       0.00000007        0       0.00000000       0.00029362       0.00015442       0.13136894
Pt       5.51654309       0.00000006       0.00000007        0       0.00000000       0.00029919       0.00023560       0.13211274
Pt       8.27481455       0.00000002       0.00000007        0       0.00000000       0.00029147       0.00023294       0.13218278
Pt       1.37913578       2.38873328       0.00000009        0       0.00000000       0.00028013       0.00017375       0.13137561
Pt       4.13740732       2.38873326       0.00000010        0       0.00000000       0.00025784       0.00014942       0.13180470
Pt       6.89567885       2.38873330       0.00000010        0       0.00000000       0.00031836       0.00027967       0.13213944
Pt       9.65395039       2.38873333       0.00000011        0       0.00000000       0.00035563       0.00019421       0.13178599
Pt       2.75827157       4.77746655       0.00000018        0       0.00000000       0.00035303       0.00013998       0.13210508
Pt       5.51654311       4.77746655       0.00000018        0       0.00000000       0.00040056       0.00013835       0.13213608
Pt       8.27481459       4.77746656       0.00000016        0       0.00000000       0.00024091       0.00013509       0.13204306
Pt      11.03308612       4.77746666       0.00000025        0       0.00000000       0.00019894       0.00016920       0.13198033
Pt       4.13740734       7.16619989       0.00000032        0       0.00000000       0.00035395       0.00013302       0.13219059
Pt       6.89567883       7.16619981       0.00000025        0       0.00000000       0.00034671       0.00021412       0.13178414
Pt       9.65395036       7.16619988       0.00000022        0       0.00000000       0.00024175       0.00008887       0.13198698
Pt      12.41222192       7.16619985       0.00000023        0       0.00000000       0.00023414       0.00013466       0.13286272
Pt       1.37913581       0.79624445       2.38855938        1       0.00000000      -0.00186969      -0.00106620      -0.14078119
Pt       4.13740731       0.79624445       2.38855951        1       0.00000000       0.00007658      -0.00025481      -0.13963374
Pt       6.89567888       0.79624443       2.38855941        1       0.00000000      -0.00115685      -0.00082879      -0.13582240
Pt       9.65395033       0.79624446       2.38855954        1       0.00000000      -0.00281714      -0.00061636      -0.13829812
Pt       2.75827161       3.18497767       2.38855947        1       0.00000000      -0.00019132       0.00017534      -0.13966553
Pt       5.51654314       3.18497767       2.38855952        1       0.00000000      -0.00080224      -0.00047968      -0.13546710
Pt       8.27481457       3.18497770       2.38855940        1       0.00000000      -0.00206429      -0.00070140      -0.13527633
Pt      11.03308614       3.18497759       2.38855939        1       0.00000000      -0.00279892      -0.00014140      -0.13933872
Pt       4.13740736       5.57371086       2.38855937        1       0.00000000      -0.00128265      -0.00055850      -0.13582301
Pt       6.89567888       5.57371105       2.38855956        1       0.00000000      -0.00164762      -0.00142741      -0.13525110
Pt       9.65395045       5.57371094       2.38855956        1       0.00000000      -0.00151310      -0.00086879      -0.13602702
Pt      12.41222194       5.57371108       2.38855958        1       0.00000000      -0.00128226       0.00051717      -0.13760088
Pt       5.51654310       7.96244423       2.38855960        1       0.00000000      -0.00195500      -0.00214773      -0.13829142
Pt       8.27481475       7.96244428       2.38855962        1       0.00000000      -0.00149970      -0.00236567      -0.13933325
Pt      11.03308616       7.96244430       2.38855961        1       0.00000000      -0.00020955      -0.00136161      -0.13760473
Pt      13.79135772       7.96244428       2.38855965        1       0.00000000      -0.00200056      -0.00115742      -0.13688388
Pt      -0.00260499       1.59145852       4.73144723        2       0.00000000       0.00053416       0.00066950      -0.00138533
Pt       2.75660029       1.59152369       4.73111959        2       0.00000000       0.00071444       0.00042700      -0.00027119
Pt       5.51494365       1.59133603       4.73219417        2       0.00000000       0.00048490       0.00035467       0.00016509
Pt       8.27218528       1.59131353       4.73232862        2       0.00000000       0.00029956       0.00046575      -0.00043407
Pt       1.37700176       3.98096760       4.73136953        2       0.00000000       0.00066106       0.00040505       0.00024520
Pt       4.13560563       3.98041478       4.73218136        2       0.00000000       0.00058645       0.00028886       0.00016223
Pt       6.89351675       3.97997244       4.73291261        2       0.00000000       0.00056304       0.00024772       0.00036865
Pt       9.65146125       3.98035876       4.73217215        2       0.00000000       0.00056109       0.00064083      -0.00007136
Pt       2.75612098       6.36892643       4.73254071        2       0.00000000       0.00012700       0.00003389      -0.00019398
Pt       5.51421325       6.36826950       4.73233909        2       0.00000000       0.00055101      -0.00001417      -0.00051183
Pt       8.27282117       6.36822362       4.73217361        2       0.00000000       0.00079955       0.00024400      -0.00001952
Pt      11.03116578       6.36884859       4.73241424        2       0.00000000       0.00051334       0.00023167       0.00012404
Pt       4.13461305       8.75708146       4.73192441        2       0.00000000      -0.00000752      -0.00005970      -0.00163716
Pt       6.89348664       8.75694864       4.73143648        2       0.00000000       0.00082741       0.00013400      -0.00125398
Pt       9.65266322       8.75697024       4.73137939        2       0.00000000       0.00067864       0.00030349       0.00004387
Pt      12.41025298       8.75733351       4.73253649        2       0.00000000       0.00004500       0.00021098      -0.00013356
Pt      -0.00546498      -0.00315626       7.08579305        3       0.00000000       0.00004031       0.00000927      -0.00382647
Pt       2.75714029      -0.00325947       7.08485730        3       0.00000000       0.00015261       0.00070149      -0.00015098
Pt       5.51386464      -0.00209110       7.08940223        3       0.00000000       0.00057264       0.00039040       0.00013679
Pt       8.27067325      -0.00201568       7.08979648        3       0.00000000       0.00011006       0.00041625      -0.00098404
Pt       1.37574210       2.38938260       7.08486078        3       0.00000000       0.00071755      -0.00020128      -0.00016582
Pt       4.13484781       2.38726076       7.08773232        3       0.00000000       0.00070525       0.00039203      -0.00000039
Pt       6.89207137       2.38671446       7.09081628        3       0.00000000       0.00079103       0.00056823       0.00029793
Pt       9.64920597       2.38743023       7.08789561        3       0.00000000       0.00080665       0.00042867      -0.00115985
Pt       2.75512088       4.77618658       7.08939942        3       0.00000000       0.00062362       0.00032573       0.00013170
Pt       5.51299293       4.77535806       7.09081991        3       0.00000000       0.00086191       0.00036755       0.00027069
Pt       8.27113765       4.77534554       7.09075099        3       0.00000000       0.00085246       0.00046387       0.00029826
Pt      11.02913900       4.77612665       7.08931908        3       0.00000000       0.00092877       0.00033596       0.00016549
Pt       4.13358793       7.16362154       7.08979362        3       0.00000000       0.00043873      -0.00010982      -0.00099203
Pt       6.89218439       7.16274519       7.08789618        3       0.00000000       0.00078233       0.00053404      -0.00117910
Pt       9.65081533       7.16344687       7.08931653        3       0.00000000       0.00077355       0.00065814       0.00019380
Pt      12.40875369       7.16419660       7.09080862        3       0.00000000       0.00062078       0.00036463       0.00031543
O        1.29283506       0.74642928      10.72335128        0       0.00000000       0.00429168       0.00247742       0.10822968
O        1.84200420       1.06346209      11.78344122        0       0.00000000      -0.00379604      -0.00219142      -0.00706699
