   3   3   1   0
  0.2666667E+04  0.2000000E-08  0.2000000E-08  0.2000000E-08  0.1500000E-15
  1.000000000000000E-004
  CAR 
 unknown system                          
      2.33722804    -27.81622934  301     -6.30637045      1.00000000
    -27.816  0.0000E+00  0.0000E+00
    -27.716  0.0000E+00  0.0000E+00
    -27.615  0.0000E+00  0.0000E+00
    -27.515  0.0000E+00  0.0000E+00
    -27.414  0.0000E+00  0.0000E+00
    -27.314  0.0000E+00  0.0000E+00
    -27.213  0.0000E+00  0.0000E+00
    -27.113  0.0000E+00  0.0000E+00
    -27.012  0.0000E+00  0.0000E+00
    -26.912  0.1900E-13  0.1910E-14
    -26.811  0.3949E-11  0.3988E-12
    -26.711  0.5026E-09  0.5092E-10
    -26.610  0.3896E-07  0.3967E-08
    -26.510  0.1841E-05  0.1890E-06
    -26.409  0.5314E-04  0.5530E-05
    -26.309  0.9380E-03  0.9981E-04
    -26.208  0.1014E-01  0.1119E-02
    -26.108  0.6729E-01  0.7883E-02
    -26.007  0.2744E+00  0.3546E-01
    -25.907  0.6883E+00  0.1046E+00
    -25.806  0.1063E+01  0.2115E+00
    -25.705  0.1012E+01  0.3133E+00
    -25.605  0.5937E+00  0.3730E+00
    -25.504  0.2144E+00  0.3945E+00
    -25.404  0.4762E-01  0.3993E+00
    -25.303  0.6499E-02  0.3999E+00
    -25.203  0.5441E-03  0.4000E+00
    -25.102  0.2789E-04  0.4000E+00
    -25.002  0.8742E-06  0.4000E+00
    -24.901  0.1673E-07  0.4000E+00
    -24.801  0.1951E-09  0.4000E+00
    -24.700  0.1385E-11  0.4000E+00
    -24.600  0.6186E-14  0.4000E+00
    -24.499  0.0000E+00  0.4000E+00
    -24.399  0.0000E+00  0.4000E+00
    -24.298  0.0000E+00  0.4000E+00
    -24.198  0.0000E+00  0.4000E+00
    -24.097  0.0000E+00  0.4000E+00
    -23.997  0.0000E+00  0.4000E+00
    -23.896  0.0000E+00  0.4000E+00
    -23.796  0.0000E+00  0.4000E+00
    -23.695  0.0000E+00  0.4000E+00
    -23.595  0.0000E+00  0.4000E+00
    -23.494  0.0000E+00  0.4000E+00
    -23.394  0.0000E+00  0.4000E+00
    -23.293  0.0000E+00  0.4000E+00
    -23.193  0.0000E+00  0.4000E+00
    -23.092  0.0000E+00  0.4000E+00
    -22.992  0.0000E+00  0.4000E+00
    -22.891  0.0000E+00  0.4000E+00
    -22.791  0.0000E+00  0.4000E+00
    -22.690  0.0000E+00  0.4000E+00
    -22.590  0.0000E+00  0.4000E+00
    -22.489  0.0000E+00  0.4000E+00
    -22.389  0.0000E+00  0.4000E+00
    -22.288  0.0000E+00  0.4000E+00
    -22.188  0.0000E+00  0.4000E+00
    -22.087  0.0000E+00  0.4000E+00
    -21.987  0.0000E+00  0.4000E+00
    -21.886  0.0000E+00  0.4000E+00
    -21.786  0.0000E+00  0.4000E+00
    -21.685  0.0000E+00  0.4000E+00
    -21.585  0.0000E+00  0.4000E+00
    -21.484  0.0000E+00  0.4000E+00
    -21.383  0.0000E+00  0.4000E+00
    -21.283  0.0000E+00  0.4000E+00
    -21.182  0.0000E+00  0.4000E+00
    -21.082  0.0000E+00  0.4000E+00
    -20.981  0.0000E+00  0.4000E+00
    -20.881  0.0000E+00  0.4000E+00
    -20.780  0.0000E+00  0.4000E+00
    -20.680  0.0000E+00  0.4000E+00
    -20.579  0.0000E+00  0.4000E+00
    -20.479  0.0000E+00  0.4000E+00
    -20.378  0.0000E+00  0.4000E+00
    -20.278  0.0000E+00  0.4000E+00
    -20.177  0.0000E+00  0.4000E+00
    -20.077  0.0000E+00  0.4000E+00
    -19.976  0.0000E+00  0.4000E+00
    -19.876  0.0000E+00  0.4000E+00
    -19.775  0.0000E+00  0.4000E+00
    -19.675  0.0000E+00  0.4000E+00
    -19.574  0.0000E+00  0.4000E+00
    -19.474  0.0000E+00  0.4000E+00
    -19.373  0.0000E+00  0.4000E+00
    -19.273  0.0000E+00  0.4000E+00
    -19.172  0.0000E+00  0.4000E+00
    -19.072  0.0000E+00  0.4000E+00
    -18.971  0.0000E+00  0.4000E+00
    -18.871  0.0000E+00  0.4000E+00
    -18.770  0.0000E+00  0.4000E+00
    -18.670  0.0000E+00  0.4000E+00
    -18.569  0.0000E+00  0.4000E+00
    -18.469  0.0000E+00  0.4000E+00
    -18.368  0.0000E+00  0.4000E+00
    -18.268  0.0000E+00  0.4000E+00
    -18.167  0.0000E+00  0.4000E+00
    -18.067  0.0000E+00  0.4000E+00
    -17.966  0.0000E+00  0.4000E+00
    -17.866  0.0000E+00  0.4000E+00
    -17.765  0.0000E+00  0.4000E+00
    -17.665  0.0000E+00  0.4000E+00
    -17.564  0.0000E+00  0.4000E+00
    -17.464  0.0000E+00  0.4000E+00
    -17.363  0.0000E+00  0.4000E+00
    -17.263  0.0000E+00  0.4000E+00
    -17.162  0.0000E+00  0.4000E+00
    -17.061  0.0000E+00  0.4000E+00
    -16.961  0.0000E+00  0.4000E+00
    -16.860  0.0000E+00  0.4000E+00
    -16.760  0.0000E+00  0.4000E+00
    -16.659  0.0000E+00  0.4000E+00
    -16.559  0.0000E+00  0.4000E+00
    -16.458  0.0000E+00  0.4000E+00
    -16.358  0.0000E+00  0.4000E+00
    -16.257  0.0000E+00  0.4000E+00
    -16.157  0.0000E+00  0.4000E+00
    -16.056  0.0000E+00  0.4000E+00
    -15.956  0.0000E+00  0.4000E+00
    -15.855  0.0000E+00  0.4000E+00
    -15.755  0.0000E+00  0.4000E+00
    -15.654  0.0000E+00  0.4000E+00
    -15.554  0.0000E+00  0.4000E+00
    -15.453  0.0000E+00  0.4000E+00
    -15.353  0.0000E+00  0.4000E+00
    -15.252  0.0000E+00  0.4000E+00
    -15.152  0.0000E+00  0.4000E+00
    -15.051  0.0000E+00  0.4000E+00
    -14.951  0.1546E-13  0.4000E+00
    -14.850  0.3265E-11  0.4000E+00
    -14.750  0.4233E-09  0.4000E+00
    -14.649  0.3342E-07  0.4000E+00
    -14.549  0.1609E-05  0.4000E+00
    -14.448  0.4730E-04  0.4000E+00
    -14.348  0.8503E-03  0.4001E+00
    -14.247  0.9363E-02  0.4010E+00
    -14.147  0.6326E-01  0.4074E+00
    -14.046  0.2627E+00  0.4338E+00
    -13.946  0.6709E+00  0.5012E+00
    -13.845  0.1055E+01  0.6073E+00
    -13.745  0.1023E+01  0.7101E+00
    -13.644  0.6109E+00  0.7715E+00
    -13.544  0.2246E+00  0.7941E+00
    -13.443  0.5081E-01  0.7992E+00
    -13.343  0.7062E-02  0.7999E+00
    -13.242  0.6020E-03  0.8000E+00
    -13.142  0.3143E-04  0.8000E+00
    -13.041  0.1003E-05  0.8000E+00
    -12.941  0.1956E-07  0.8000E+00
    -12.840  0.2324E-09  0.8000E+00
    -12.740  0.1681E-11  0.8000E+00
    -12.639  0.7511E-14  0.8000E+00
    -12.538  0.0000E+00  0.8000E+00
    -12.438  0.0000E+00  0.8000E+00
    -12.337  0.0000E+00  0.8000E+00
    -12.237  0.0000E+00  0.8000E+00
    -12.136  0.0000E+00  0.8000E+00
    -12.036  0.0000E+00  0.8000E+00
    -11.935  0.0000E+00  0.8000E+00
    -11.835  0.0000E+00  0.8000E+00
    -11.734  0.0000E+00  0.8000E+00
    -11.634  0.0000E+00  0.8000E+00
    -11.533  0.0000E+00  0.8000E+00
    -11.433  0.0000E+00  0.8000E+00
    -11.332  0.0000E+00  0.8000E+00
    -11.232  0.0000E+00  0.8000E+00
    -11.131  0.0000E+00  0.8000E+00
    -11.031  0.0000E+00  0.8000E+00
    -10.930  0.0000E+00  0.8000E+00
    -10.830  0.0000E+00  0.8000E+00
    -10.729  0.0000E+00  0.8000E+00
    -10.629  0.0000E+00  0.8000E+00
    -10.528  0.0000E+00  0.8000E+00
    -10.428  0.0000E+00  0.8000E+00
    -10.327  0.0000E+00  0.8000E+00
    -10.227  0.0000E+00  0.8000E+00
    -10.126  0.1767E-13  0.8000E+00
    -10.026  0.3715E-11  0.8000E+00
     -9.925  0.4757E-09  0.8000E+00
     -9.825  0.3709E-07  0.8000E+00
     -9.724  0.1763E-05  0.8000E+00
     -9.624  0.5119E-04  0.8000E+00
     -9.523  0.9089E-03  0.8001E+00
     -9.423  0.9886E-02  0.8011E+00
     -9.322  0.6598E-01  0.8077E+00
     -9.222  0.2706E+00  0.8349E+00
     -9.121  0.6827E+00  0.9035E+00
     -9.021  0.1061E+01  0.1010E+01
     -8.920  0.1016E+01  0.1112E+01
     -8.820  0.5992E+00  0.1173E+01
     -8.719  0.2176E+00  0.1194E+01
     -8.619  0.4863E-01  0.1199E+01
     -8.518  0.6675E-02  0.1200E+01
     -8.418  0.5621E-03  0.1200E+01
     -8.317  0.2899E-04  0.1200E+01
     -8.216  0.9140E-06  0.1200E+01
     -8.116  0.2935E-07  0.1200E+01
     -8.015  0.6405E-06  0.1200E+01
     -7.915  0.2129E-04  0.1200E+01
     -7.814  0.4326E-03  0.1200E+01
     -7.714  0.5383E-02  0.1201E+01
     -7.613  0.4109E-01  0.1205E+01
     -7.513  0.1926E+00  0.1224E+01
     -7.412  0.5555E+00  0.1280E+01
     -7.312  0.9863E+00  0.1379E+01
     -7.211  0.1079E+01  0.1487E+01
     -7.111  0.7271E+00  0.1561E+01
     -7.010  0.3018E+00  0.1591E+01
     -6.910  0.7709E-01  0.1599E+01
     -6.809  0.1210E-01  0.1600E+01
     -6.709  0.1166E-02  0.1600E+01
     -6.608  0.6881E-04  0.1600E+01
     -6.508  0.2484E-05  0.1600E+01
     -6.407  0.5478E-07  0.1600E+01
     -6.307  0.7366E-09  0.1600E+01
     -6.206  0.6032E-11  0.1600E+01
     -6.106  0.3004E-13  0.1600E+01
     -6.005  0.0000E+00  0.1600E+01
     -5.905  0.0000E+00  0.1600E+01
     -5.804  0.0000E+00  0.1600E+01
     -5.704  0.0000E+00  0.1600E+01
     -5.603  0.0000E+00  0.1600E+01
     -5.503  0.0000E+00  0.1600E+01
     -5.402  0.0000E+00  0.1600E+01
     -5.302  0.0000E+00  0.1600E+01
     -5.201  0.0000E+00  0.1600E+01
     -5.101  0.0000E+00  0.1600E+01
     -5.000  0.0000E+00  0.1600E+01
     -4.900  0.0000E+00  0.1600E+01
     -4.799  0.0000E+00  0.1600E+01
     -4.699  0.0000E+00  0.1600E+01
     -4.598  0.0000E+00  0.1600E+01
     -4.498  0.0000E+00  0.1600E+01
     -4.397  0.0000E+00  0.1600E+01
     -4.297  0.0000E+00  0.1600E+01
     -4.196  0.0000E+00  0.1600E+01
     -4.096  0.0000E+00  0.1600E+01
     -3.995  0.0000E+00  0.1600E+01
     -3.894  0.0000E+00  0.1600E+01
     -3.794  0.0000E+00  0.1600E+01
     -3.693  0.0000E+00  0.1600E+01
     -3.593  0.0000E+00  0.1600E+01
     -3.492  0.0000E+00  0.1600E+01
     -3.392  0.0000E+00  0.1600E+01
     -3.291  0.0000E+00  0.1600E+01
     -3.191  0.0000E+00  0.1600E+01
     -3.090  0.0000E+00  0.1600E+01
     -2.990  0.0000E+00  0.1600E+01
     -2.889  0.0000E+00  0.1600E+01
     -2.789  0.0000E+00  0.1600E+01
     -2.688  0.0000E+00  0.1600E+01
     -2.588  0.0000E+00  0.1600E+01
     -2.487  0.0000E+00  0.1600E+01
     -2.387  0.0000E+00  0.1600E+01
     -2.286  0.0000E+00  0.1600E+01
     -2.186  0.0000E+00  0.1600E+01
     -2.085  0.0000E+00  0.1600E+01
     -1.985  0.6627E-15  0.1600E+01
     -1.884  0.1867E-12  0.1600E+01
     -1.784  0.3175E-10  0.1600E+01
     -1.683  0.3284E-08  0.1600E+01
     -1.583  0.2070E-06  0.1600E+01
     -1.482  0.7961E-05  0.1600E+01
     -1.382  0.1871E-03  0.1600E+01
     -1.281  0.2690E-02  0.1600E+01
     -1.181  0.2372E-01  0.1603E+01
     -1.080  0.1284E+00  0.1616E+01
     -0.980  0.4273E+00  0.1659E+01
     -0.879  0.8755E+00  0.1747E+01
     -0.779  0.1105E+01  0.1858E+01
     -0.678  0.8592E+00  0.1944E+01
     -0.578  0.4116E+00  0.1985E+01
     -0.477  0.1223E+00  0.1998E+01
     -0.377  0.3211E-01  0.2001E+01
     -0.276  0.6985E-01  0.2008E+01
     -0.176  0.2792E+00  0.2036E+01
     -0.075  0.7393E+00  0.2110E+01
      0.025  0.1377E+01  0.2249E+01
      0.126  0.2204E+01  0.2470E+01
      0.226  0.3427E+01  0.2815E+01
      0.327  0.4438E+01  0.3261E+01
      0.428  0.3991E+01  0.3662E+01
      0.528  0.2307E+01  0.3894E+01
      0.629  0.8376E+00  0.3978E+01
      0.729  0.1894E+00  0.3997E+01
      0.830  0.2655E-01  0.4000E+01
      0.930  0.2301E-02  0.4000E+01
      1.031  0.1229E-03  0.4000E+01
      1.131  0.4037E-05  0.4000E+01
      1.232  0.8130E-07  0.4000E+01
      1.332  0.1002E-08  0.4000E+01
      1.433  0.7545E-11  0.4000E+01
      1.533  0.3535E-13  0.4000E+01
      1.634  0.0000E+00  0.4000E+01
      1.734  0.0000E+00  0.4000E+01
      1.835  0.0000E+00  0.4000E+01
      1.935  0.0000E+00  0.4000E+01
      2.036  0.0000E+00  0.4000E+01
      2.136  0.0000E+00  0.4000E+01
      2.237  0.0000E+00  0.4000E+01
      2.337  0.0000E+00  0.4000E+01
      2.33722804    -27.81622934  301     -6.30637045      1.00000000
    -27.816  0.0000E+00  0.0000E+00  0.0000E+00
    -27.716  0.0000E+00  0.0000E+00  0.0000E+00
    -27.615  0.0000E+00  0.0000E+00  0.0000E+00
    -27.515  0.0000E+00  0.0000E+00  0.0000E+00
    -27.414  0.0000E+00  0.0000E+00  0.0000E+00
    -27.314  0.0000E+00  0.0000E+00  0.0000E+00
    -27.213  0.0000E+00  0.0000E+00  0.0000E+00
    -27.113  0.0000E+00  0.0000E+00  0.0000E+00
    -27.012  0.0000E+00  0.0000E+00  0.0000E+00
    -26.912  0.6586E-13  0.3575E-14  0.0000E+00
    -26.811  0.1369E-10  0.7431E-12  0.0000E+00
    -26.711  0.1742E-08  0.9458E-10  0.0000E+00
    -26.610  0.1351E-06  0.7331E-08  0.0000E+00
    -26.510  0.6383E-05  0.3465E-06  0.0000E+00
    -26.409  0.1842E-03  0.9999E-05  0.0000E+00
    -26.309  0.3252E-02  0.1765E-03  0.0000E+00
    -26.208  0.3516E-01  0.1908E-02  0.0000E+00
    -26.108  0.2333E+00  0.1266E-01  0.0000E+00
    -26.007  0.9511E+00  0.5163E-01  0.0000E+00
    -25.907  0.2386E+01  0.1295E+00  0.0000E+00
    -25.806  0.3687E+01  0.2001E+00  0.0000E+00
    -25.705  0.3509E+01  0.1905E+00  0.0000E+00
    -25.605  0.2058E+01  0.1117E+00  0.0000E+00
    -25.504  0.7432E+00  0.4034E-01  0.0000E+00
    -25.404  0.1651E+00  0.8962E-02  0.0000E+00
    -25.303  0.2253E-01  0.1223E-02  0.0000E+00
    -25.203  0.1886E-02  0.1024E-03  0.0000E+00
    -25.102  0.9669E-04  0.5248E-05  0.0000E+00
    -25.002  0.3031E-05  0.1645E-06  0.0000E+00
    -24.901  0.5799E-07  0.3148E-08  0.0000E+00
    -24.801  0.6763E-09  0.3671E-10  0.0000E+00
    -24.700  0.4802E-11  0.2606E-12  0.0000E+00
    -24.600  0.2144E-13  0.1164E-14  0.0000E+00
    -24.499  0.0000E+00  0.0000E+00  0.0000E+00
    -24.399  0.0000E+00  0.0000E+00  0.0000E+00
    -24.298  0.0000E+00  0.0000E+00  0.0000E+00
    -24.198  0.0000E+00  0.0000E+00  0.0000E+00
    -24.097  0.0000E+00  0.0000E+00  0.0000E+00
    -23.997  0.0000E+00  0.0000E+00  0.0000E+00
    -23.896  0.0000E+00  0.0000E+00  0.0000E+00
    -23.796  0.0000E+00  0.0000E+00  0.0000E+00
    -23.695  0.0000E+00  0.0000E+00  0.0000E+00
    -23.595  0.0000E+00  0.0000E+00  0.0000E+00
    -23.494  0.0000E+00  0.0000E+00  0.0000E+00
    -23.394  0.0000E+00  0.0000E+00  0.0000E+00
    -23.293  0.0000E+00  0.0000E+00  0.0000E+00
    -23.193  0.0000E+00  0.0000E+00  0.0000E+00
    -23.092  0.0000E+00  0.0000E+00  0.0000E+00
    -22.992  0.0000E+00  0.0000E+00  0.0000E+00
    -22.891  0.0000E+00  0.0000E+00  0.0000E+00
    -22.791  0.0000E+00  0.0000E+00  0.0000E+00
    -22.690  0.0000E+00  0.0000E+00  0.0000E+00
    -22.590  0.0000E+00  0.0000E+00  0.0000E+00
    -22.489  0.0000E+00  0.0000E+00  0.0000E+00
    -22.389  0.0000E+00  0.0000E+00  0.0000E+00
    -22.288  0.0000E+00  0.0000E+00  0.0000E+00
    -22.188  0.0000E+00  0.0000E+00  0.0000E+00
    -22.087  0.0000E+00  0.0000E+00  0.0000E+00
    -21.987  0.0000E+00  0.0000E+00  0.0000E+00
    -21.886  0.0000E+00  0.0000E+00  0.0000E+00
    -21.786  0.0000E+00  0.0000E+00  0.0000E+00
    -21.685  0.0000E+00  0.0000E+00  0.0000E+00
    -21.585  0.0000E+00  0.0000E+00  0.0000E+00
    -21.484  0.0000E+00  0.0000E+00  0.0000E+00
    -21.383  0.0000E+00  0.0000E+00  0.0000E+00
    -21.283  0.0000E+00  0.0000E+00  0.0000E+00
    -21.182  0.0000E+00  0.0000E+00  0.0000E+00
    -21.082  0.0000E+00  0.0000E+00  0.0000E+00
    -20.981  0.0000E+00  0.0000E+00  0.0000E+00
    -20.881  0.0000E+00  0.0000E+00  0.0000E+00
    -20.780  0.0000E+00  0.0000E+00  0.0000E+00
    -20.680  0.0000E+00  0.0000E+00  0.0000E+00
    -20.579  0.0000E+00  0.0000E+00  0.0000E+00
    -20.479  0.0000E+00  0.0000E+00  0.0000E+00
    -20.378  0.0000E+00  0.0000E+00  0.0000E+00
    -20.278  0.0000E+00  0.0000E+00  0.0000E+00
    -20.177  0.0000E+00  0.0000E+00  0.0000E+00
    -20.077  0.0000E+00  0.0000E+00  0.0000E+00
    -19.976  0.0000E+00  0.0000E+00  0.0000E+00
    -19.876  0.0000E+00  0.0000E+00  0.0000E+00
    -19.775  0.0000E+00  0.0000E+00  0.0000E+00
    -19.675  0.0000E+00  0.0000E+00  0.0000E+00
    -19.574  0.0000E+00  0.0000E+00  0.0000E+00
    -19.474  0.0000E+00  0.0000E+00  0.0000E+00
    -19.373  0.0000E+00  0.0000E+00  0.0000E+00
    -19.273  0.0000E+00  0.0000E+00  0.0000E+00
    -19.172  0.0000E+00  0.0000E+00  0.0000E+00
    -19.072  0.0000E+00  0.0000E+00  0.0000E+00
    -18.971  0.0000E+00  0.0000E+00  0.0000E+00
    -18.871  0.0000E+00  0.0000E+00  0.0000E+00
    -18.770  0.0000E+00  0.0000E+00  0.0000E+00
    -18.670  0.0000E+00  0.0000E+00  0.0000E+00
    -18.569  0.0000E+00  0.0000E+00  0.0000E+00
    -18.469  0.0000E+00  0.0000E+00  0.0000E+00
    -18.368  0.0000E+00  0.0000E+00  0.0000E+00
    -18.268  0.0000E+00  0.0000E+00  0.0000E+00
    -18.167  0.0000E+00  0.0000E+00  0.0000E+00
    -18.067  0.0000E+00  0.0000E+00  0.0000E+00
    -17.966  0.0000E+00  0.0000E+00  0.0000E+00
    -17.866  0.0000E+00  0.0000E+00  0.0000E+00
    -17.765  0.0000E+00  0.0000E+00  0.0000E+00
    -17.665  0.0000E+00  0.0000E+00  0.0000E+00
    -17.564  0.0000E+00  0.0000E+00  0.0000E+00
    -17.464  0.0000E+00  0.0000E+00  0.0000E+00
    -17.363  0.0000E+00  0.0000E+00  0.0000E+00
    -17.263  0.0000E+00  0.0000E+00  0.0000E+00
    -17.162  0.0000E+00  0.0000E+00  0.0000E+00
    -17.061  0.0000E+00  0.0000E+00  0.0000E+00
    -16.961  0.0000E+00  0.0000E+00  0.0000E+00
    -16.860  0.0000E+00  0.0000E+00  0.0000E+00
    -16.760  0.0000E+00  0.0000E+00  0.0000E+00
    -16.659  0.0000E+00  0.0000E+00  0.0000E+00
    -16.559  0.0000E+00  0.0000E+00  0.0000E+00
    -16.458  0.0000E+00  0.0000E+00  0.0000E+00
    -16.358  0.0000E+00  0.0000E+00  0.0000E+00
    -16.257  0.0000E+00  0.0000E+00  0.0000E+00
    -16.157  0.0000E+00  0.0000E+00  0.0000E+00
    -16.056  0.0000E+00  0.0000E+00  0.0000E+00
    -15.956  0.0000E+00  0.0000E+00  0.0000E+00
    -15.855  0.0000E+00  0.0000E+00  0.0000E+00
    -15.755  0.0000E+00  0.0000E+00  0.0000E+00
    -15.654  0.0000E+00  0.0000E+00  0.0000E+00
    -15.554  0.0000E+00  0.0000E+00  0.0000E+00
    -15.453  0.0000E+00  0.0000E+00  0.0000E+00
    -15.353  0.0000E+00  0.0000E+00  0.0000E+00
    -15.252  0.0000E+00  0.0000E+00  0.0000E+00
    -15.152  0.0000E+00  0.0000E+00  0.0000E+00
    -15.051  0.0000E+00  0.0000E+00  0.0000E+00
    -14.951  0.6509E-42  0.4420E-13  0.0000E+00
    -14.850  0.1374E-39  0.9332E-11  0.0000E+00
    -14.750  0.1782E-37  0.1210E-08  0.0000E+00
    -14.649  0.1407E-35  0.9553E-07  0.0000E+00
    -14.549  0.6773E-34  0.4599E-05  0.0000E+00
    -14.448  0.1991E-32  0.1352E-03  0.0000E+00
    -14.348  0.3579E-31  0.2430E-02  0.0000E+00
    -14.247  0.3941E-30  0.2676E-01  0.0000E+00
    -14.147  0.2663E-29  0.1808E+00  0.0000E+00
    -14.046  0.1106E-28  0.7507E+00  0.0000E+00
    -13.946  0.2824E-28  0.1918E+01  0.0000E+00
    -13.845  0.4443E-28  0.3017E+01  0.0000E+00
    -13.745  0.4306E-28  0.2924E+01  0.0000E+00
    -13.644  0.2571E-28  0.1746E+01  0.0000E+00
    -13.544  0.9455E-29  0.6420E+00  0.0000E+00
    -13.443  0.2139E-29  0.1452E+00  0.0000E+00
    -13.343  0.2972E-30  0.2018E-01  0.0000E+00
    -13.242  0.2534E-31  0.1721E-02  0.0000E+00
    -13.142  0.1323E-32  0.8984E-04  0.0000E+00
    -13.041  0.4224E-34  0.2868E-05  0.0000E+00
    -12.941  0.8232E-36  0.5590E-07  0.0000E+00
    -12.840  0.9780E-38  0.6641E-09  0.0000E+00
    -12.740  0.7075E-40  0.4804E-11  0.0000E+00
    -12.639  0.3162E-42  0.2147E-13  0.0000E+00
    -12.538  0.0000E+00  0.0000E+00  0.0000E+00
    -12.438  0.0000E+00  0.0000E+00  0.0000E+00
    -12.337  0.0000E+00  0.0000E+00  0.0000E+00
    -12.237  0.0000E+00  0.0000E+00  0.0000E+00
    -12.136  0.0000E+00  0.0000E+00  0.0000E+00
    -12.036  0.0000E+00  0.0000E+00  0.0000E+00
    -11.935  0.0000E+00  0.0000E+00  0.0000E+00
    -11.835  0.0000E+00  0.0000E+00  0.0000E+00
    -11.734  0.0000E+00  0.0000E+00  0.0000E+00
    -11.634  0.0000E+00  0.0000E+00  0.0000E+00
    -11.533  0.0000E+00  0.0000E+00  0.0000E+00
    -11.433  0.0000E+00  0.0000E+00  0.0000E+00
    -11.332  0.0000E+00  0.0000E+00  0.0000E+00
    -11.232  0.0000E+00  0.0000E+00  0.0000E+00
    -11.131  0.0000E+00  0.0000E+00  0.0000E+00
    -11.031  0.0000E+00  0.0000E+00  0.0000E+00
    -10.930  0.0000E+00  0.0000E+00  0.0000E+00
    -10.830  0.0000E+00  0.0000E+00  0.0000E+00
    -10.729  0.0000E+00  0.0000E+00  0.0000E+00
    -10.629  0.0000E+00  0.0000E+00  0.0000E+00
    -10.528  0.0000E+00  0.0000E+00  0.0000E+00
    -10.428  0.0000E+00  0.0000E+00  0.0000E+00
    -10.327  0.0000E+00  0.0000E+00  0.0000E+00
    -10.227  0.0000E+00  0.0000E+00  0.0000E+00
    -10.126  0.6603E-14  0.5099E-13  0.0000E+00
    -10.026  0.1388E-11  0.1072E-10  0.0000E+00
     -9.925  0.1777E-09  0.1372E-08  0.0000E+00
     -9.825  0.1386E-07  0.1070E-06  0.0000E+00
     -9.724  0.6588E-06  0.5087E-05  0.0000E+00
     -9.624  0.1912E-04  0.1477E-03  0.0000E+00
     -9.523  0.3396E-03  0.2622E-02  0.0000E+00
     -9.423  0.3693E-02  0.2852E-01  0.0000E+00
     -9.322  0.2465E-01  0.1903E+00  0.0000E+00
     -9.222  0.1011E+00  0.7806E+00  0.0000E+00
     -9.121  0.2551E+00  0.1970E+01  0.0000E+00
     -9.021  0.3964E+00  0.3061E+01  0.0000E+00
     -8.920  0.3795E+00  0.2931E+01  0.0000E+00
     -8.820  0.2239E+00  0.1729E+01  0.0000E+00
     -8.719  0.8131E-01  0.6279E+00  0.0000E+00
     -8.619  0.1817E-01  0.1403E+00  0.0000E+00
     -8.518  0.2494E-02  0.1926E-01  0.0000E+00
     -8.418  0.2100E-03  0.1622E-02  0.0000E+00
     -8.317  0.1083E-04  0.8362E-04  0.0000E+00
     -8.216  0.3414E-06  0.2637E-05  0.0000E+00
     -8.116  0.6571E-08  0.9057E-07  0.0000E+00
     -8.015  0.7710E-10  0.2170E-05  0.0000E+00
     -7.915  0.5510E-12  0.7212E-04  0.0000E+00
     -7.814  0.2311E-14  0.1466E-02  0.0000E+00
     -7.714  0.7064E-29  0.1824E-01  0.0000E+00
     -7.613  0.5391E-28  0.1392E+00  0.0000E+00
     -7.513  0.2528E-27  0.6527E+00  0.0000E+00
     -7.412  0.7289E-27  0.1882E+01  0.0000E+00
     -7.312  0.1294E-26  0.3342E+01  0.0000E+00
     -7.211  0.1416E-26  0.3655E+01  0.0000E+00
     -7.111  0.9541E-27  0.2464E+01  0.0000E+00
     -7.010  0.3960E-27  0.1023E+01  0.0000E+00
     -6.910  0.1012E-27  0.2612E+00  0.0000E+00
     -6.809  0.1588E-28  0.4100E-01  0.0000E+00
     -6.709  0.1530E-29  0.3950E-02  0.0000E+00
     -6.608  0.9029E-31  0.2331E-03  0.0000E+00
     -6.508  0.3260E-32  0.8417E-05  0.0000E+00
     -6.407  0.7188E-34  0.1856E-06  0.0000E+00
     -6.307  0.9665E-36  0.2496E-08  0.0000E+00
     -6.206  0.7915E-38  0.2044E-10  0.0000E+00
     -6.106  0.3942E-40  0.1018E-12  0.0000E+00
     -6.005  0.0000E+00  0.0000E+00  0.0000E+00
     -5.905  0.0000E+00  0.0000E+00  0.0000E+00
     -5.804  0.0000E+00  0.0000E+00  0.0000E+00
     -5.704  0.0000E+00  0.0000E+00  0.0000E+00
     -5.603  0.0000E+00  0.0000E+00  0.0000E+00
     -5.503  0.0000E+00  0.0000E+00  0.0000E+00
     -5.402  0.0000E+00  0.0000E+00  0.0000E+00
     -5.302  0.0000E+00  0.0000E+00  0.0000E+00
     -5.201  0.0000E+00  0.0000E+00  0.0000E+00
     -5.101  0.0000E+00  0.0000E+00  0.0000E+00
     -5.000  0.0000E+00  0.0000E+00  0.0000E+00
     -4.900  0.0000E+00  0.0000E+00  0.0000E+00
     -4.799  0.0000E+00  0.0000E+00  0.0000E+00
     -4.699  0.0000E+00  0.0000E+00  0.0000E+00
     -4.598  0.0000E+00  0.0000E+00  0.0000E+00
     -4.498  0.0000E+00  0.0000E+00  0.0000E+00
     -4.397  0.0000E+00  0.0000E+00  0.0000E+00
     -4.297  0.0000E+00  0.0000E+00  0.0000E+00
     -4.196  0.0000E+00  0.0000E+00  0.0000E+00
     -4.096  0.0000E+00  0.0000E+00  0.0000E+00
     -3.995  0.0000E+00  0.0000E+00  0.0000E+00
     -3.894  0.0000E+00  0.0000E+00  0.0000E+00
     -3.794  0.0000E+00  0.0000E+00  0.0000E+00
     -3.693  0.0000E+00  0.0000E+00  0.0000E+00
     -3.593  0.0000E+00  0.0000E+00  0.0000E+00
     -3.492  0.0000E+00  0.0000E+00  0.0000E+00
     -3.392  0.0000E+00  0.0000E+00  0.0000E+00
     -3.291  0.0000E+00  0.0000E+00  0.0000E+00
     -3.191  0.0000E+00  0.0000E+00  0.0000E+00
     -3.090  0.0000E+00  0.0000E+00  0.0000E+00
     -2.990  0.0000E+00  0.0000E+00  0.0000E+00
     -2.889  0.0000E+00  0.0000E+00  0.0000E+00
     -2.789  0.0000E+00  0.0000E+00  0.0000E+00
     -2.688  0.0000E+00  0.0000E+00  0.0000E+00
     -2.588  0.0000E+00  0.0000E+00  0.0000E+00
     -2.487  0.0000E+00  0.0000E+00  0.0000E+00
     -2.387  0.0000E+00  0.0000E+00  0.0000E+00
     -2.286  0.0000E+00  0.0000E+00  0.0000E+00
     -2.186  0.0000E+00  0.0000E+00  0.0000E+00
     -2.085  0.0000E+00  0.0000E+00  0.0000E+00
     -1.985  0.8401E-16  0.7915E-16  0.0000E+00
     -1.884  0.2366E-13  0.2229E-13  0.0000E+00
     -1.784  0.4024E-11  0.3791E-11  0.0000E+00
     -1.683  0.4163E-09  0.3922E-09  0.0000E+00
     -1.583  0.2624E-07  0.2472E-07  0.0000E+00
     -1.482  0.1009E-05  0.9507E-06  0.0000E+00
     -1.382  0.2371E-04  0.2234E-04  0.0000E+00
     -1.281  0.3410E-03  0.3213E-03  0.0000E+00
     -1.181  0.3007E-02  0.2833E-02  0.0000E+00
     -1.080  0.1628E-01  0.1533E-01  0.0000E+00
     -0.980  0.5417E-01  0.5104E-01  0.0000E+00
     -0.879  0.1110E+00  0.1046E+00  0.0000E+00
     -0.779  0.1401E+00  0.1320E+00  0.0000E+00
     -0.678  0.1089E+00  0.1026E+00  0.0000E+00
     -0.578  0.5217E-01  0.4915E-01  0.0000E+00
     -0.477  0.1539E-01  0.1450E-01  0.0000E+00
     -0.377  0.2831E-02  0.2683E-02  0.0000E+00
     -0.276  0.5944E-03  0.6682E-03  0.0000E+00
     -0.176  0.1183E-02  0.1656E-02  0.0000E+00
     -0.075  0.2940E-02  0.4999E-02  0.0000E+00
      0.025  0.4698E-02  0.1250E-01  0.0000E+00
      0.126  0.5119E-02  0.2774E-01  0.0000E+00
      0.226  0.4672E-02  0.4888E-01  0.0000E+00
      0.327  0.4354E-02  0.5937E-01  0.0000E+00
      0.428  0.3594E-02  0.4643E-01  0.0000E+00
      0.528  0.2086E-02  0.2284E-01  0.0000E+00
      0.629  0.7717E-03  0.7024E-02  0.0000E+00
      0.729  0.1771E-03  0.1348E-02  0.0000E+00
      0.830  0.2501E-04  0.1612E-03  0.0000E+00
      0.930  0.2169E-05  0.1200E-04  0.0000E+00
      1.031  0.1152E-06  0.5560E-06  0.0000E+00
      1.131  0.3743E-08  0.1599E-07  0.0000E+00
      1.232  0.7426E-10  0.2849E-09  0.0000E+00
      1.332  0.8985E-12  0.3136E-11  0.0000E+00
      1.433  0.6621E-14  0.2128E-13  0.0000E+00
      1.533  0.3011E-16  0.9580E-16  0.0000E+00
      1.634  0.0000E+00  0.0000E+00  0.0000E+00
      1.734  0.0000E+00  0.0000E+00  0.0000E+00
      1.835  0.0000E+00  0.0000E+00  0.0000E+00
      1.935  0.0000E+00  0.0000E+00  0.0000E+00
      2.036  0.0000E+00  0.0000E+00  0.0000E+00
      2.136  0.0000E+00  0.0000E+00  0.0000E+00
      2.237  0.0000E+00  0.0000E+00  0.0000E+00
      2.337  0.0000E+00  0.0000E+00  0.0000E+00
      2.33722804    -27.81622934  301     -6.30637045      1.00000000
    -27.816  0.0000E+00  0.0000E+00  0.0000E+00
    -27.716  0.0000E+00  0.0000E+00  0.0000E+00
    -27.615  0.0000E+00  0.0000E+00  0.0000E+00
    -27.515  0.0000E+00  0.0000E+00  0.0000E+00
    -27.414  0.0000E+00  0.0000E+00  0.0000E+00
    -27.314  0.0000E+00  0.0000E+00  0.0000E+00
    -27.213  0.0000E+00  0.0000E+00  0.0000E+00
    -27.113  0.0000E+00  0.0000E+00  0.0000E+00
    -27.012  0.0000E+00  0.0000E+00  0.0000E+00
    -26.912  0.1064E-13  0.3502E-14  0.0000E+00
    -26.811  0.2211E-11  0.7278E-12  0.0000E+00
    -26.711  0.2814E-09  0.9264E-10  0.0000E+00
    -26.610  0.2181E-07  0.7181E-08  0.0000E+00
    -26.510  0.1031E-05  0.3394E-06  0.0000E+00
    -26.409  0.2976E-04  0.9794E-05  0.0000E+00
    -26.309  0.5252E-03  0.1729E-03  0.0000E+00
    -26.208  0.5679E-02  0.1869E-02  0.0000E+00
    -26.108  0.3768E-01  0.1240E-01  0.0000E+00
    -26.007  0.1536E+00  0.5057E-01  0.0000E+00
    -25.907  0.3854E+00  0.1269E+00  0.0000E+00
    -25.806  0.5955E+00  0.1960E+00  0.0000E+00
    -25.705  0.5668E+00  0.1866E+00  0.0000E+00
    -25.605  0.3324E+00  0.1094E+00  0.0000E+00
    -25.504  0.1200E+00  0.3952E-01  0.0000E+00
    -25.404  0.2667E-01  0.8778E-02  0.0000E+00
    -25.303  0.3639E-02  0.1198E-02  0.0000E+00
    -25.203  0.3047E-03  0.1003E-03  0.0000E+00
    -25.102  0.1562E-04  0.5141E-05  0.0000E+00
    -25.002  0.4895E-06  0.1611E-06  0.0000E+00
    -24.901  0.9366E-08  0.3083E-08  0.0000E+00
    -24.801  0.1092E-09  0.3596E-10  0.0000E+00
    -24.700  0.7756E-12  0.2553E-12  0.0000E+00
    -24.600  0.3464E-14  0.1140E-14  0.0000E+00
    -24.499  0.0000E+00  0.0000E+00  0.0000E+00
    -24.399  0.0000E+00  0.0000E+00  0.0000E+00
    -24.298  0.0000E+00  0.0000E+00  0.0000E+00
    -24.198  0.0000E+00  0.0000E+00  0.0000E+00
    -24.097  0.0000E+00  0.0000E+00  0.0000E+00
    -23.997  0.0000E+00  0.0000E+00  0.0000E+00
    -23.896  0.0000E+00  0.0000E+00  0.0000E+00
    -23.796  0.0000E+00  0.0000E+00  0.0000E+00
    -23.695  0.0000E+00  0.0000E+00  0.0000E+00
    -23.595  0.0000E+00  0.0000E+00  0.0000E+00
    -23.494  0.0000E+00  0.0000E+00  0.0000E+00
    -23.394  0.0000E+00  0.0000E+00  0.0000E+00
    -23.293  0.0000E+00  0.0000E+00  0.0000E+00
    -23.193  0.0000E+00  0.0000E+00  0.0000E+00
    -23.092  0.0000E+00  0.0000E+00  0.0000E+00
    -22.992  0.0000E+00  0.0000E+00  0.0000E+00
    -22.891  0.0000E+00  0.0000E+00  0.0000E+00
    -22.791  0.0000E+00  0.0000E+00  0.0000E+00
    -22.690  0.0000E+00  0.0000E+00  0.0000E+00
    -22.590  0.0000E+00  0.0000E+00  0.0000E+00
    -22.489  0.0000E+00  0.0000E+00  0.0000E+00
    -22.389  0.0000E+00  0.0000E+00  0.0000E+00
    -22.288  0.0000E+00  0.0000E+00  0.0000E+00
    -22.188  0.0000E+00  0.0000E+00  0.0000E+00
    -22.087  0.0000E+00  0.0000E+00  0.0000E+00
    -21.987  0.0000E+00  0.0000E+00  0.0000E+00
    -21.886  0.0000E+00  0.0000E+00  0.0000E+00
    -21.786  0.0000E+00  0.0000E+00  0.0000E+00
    -21.685  0.0000E+00  0.0000E+00  0.0000E+00
    -21.585  0.0000E+00  0.0000E+00  0.0000E+00
    -21.484  0.0000E+00  0.0000E+00  0.0000E+00
    -21.383  0.0000E+00  0.0000E+00  0.0000E+00
    -21.283  0.0000E+00  0.0000E+00  0.0000E+00
    -21.182  0.0000E+00  0.0000E+00  0.0000E+00
    -21.082  0.0000E+00  0.0000E+00  0.0000E+00
    -20.981  0.0000E+00  0.0000E+00  0.0000E+00
    -20.881  0.0000E+00  0.0000E+00  0.0000E+00
    -20.780  0.0000E+00  0.0000E+00  0.0000E+00
    -20.680  0.0000E+00  0.0000E+00  0.0000E+00
    -20.579  0.0000E+00  0.0000E+00  0.0000E+00
    -20.479  0.0000E+00  0.0000E+00  0.0000E+00
    -20.378  0.0000E+00  0.0000E+00  0.0000E+00
    -20.278  0.0000E+00  0.0000E+00  0.0000E+00
    -20.177  0.0000E+00  0.0000E+00  0.0000E+00
    -20.077  0.0000E+00  0.0000E+00  0.0000E+00
    -19.976  0.0000E+00  0.0000E+00  0.0000E+00
    -19.876  0.0000E+00  0.0000E+00  0.0000E+00
    -19.775  0.0000E+00  0.0000E+00  0.0000E+00
    -19.675  0.0000E+00  0.0000E+00  0.0000E+00
    -19.574  0.0000E+00  0.0000E+00  0.0000E+00
    -19.474  0.0000E+00  0.0000E+00  0.0000E+00
    -19.373  0.0000E+00  0.0000E+00  0.0000E+00
    -19.273  0.0000E+00  0.0000E+00  0.0000E+00
    -19.172  0.0000E+00  0.0000E+00  0.0000E+00
    -19.072  0.0000E+00  0.0000E+00  0.0000E+00
    -18.971  0.0000E+00  0.0000E+00  0.0000E+00
    -18.871  0.0000E+00  0.0000E+00  0.0000E+00