    3    3    5    1
  0.2666667E+04  0.2000000E-08  0.2000000E-08  0.2000000E-08  0.1500000E-15
  1.000000000000000E-004
  CAR 
 unknown system                          
      8      1     10
 
  0.0000000E+00  0.0000000E+00  0.0000000E+00  0.1000000E+01
      1        -25.816229   1.000000
      2        -13.851613   1.000000
      3         -9.029601   1.000000
      4         -7.293256   1.000000
      5         -0.830835   0.000000
      6          0.015445   0.000000
      7          0.268108   0.000000
      8          0.318826   0.000000
      9          0.323402   0.000000
     10          0.337228   0.000000
