       N       E                     dE             d eps       ncg     rms          rms(c)
DAV:   1     0.745570930587E+02    0.74557E+02   -0.11381E+03    30   0.244E+02
DAV:   2     0.715270864085E+01   -0.67404E+02   -0.63887E+02    40   0.706E+01
DAV:   3    -0.152684977753E+02   -0.22421E+02   -0.22421E+02    20   0.590E+01
DAV:   4    -0.163955331120E+02   -0.11270E+01   -0.11270E+01    20   0.182E+01
DAV:   5    -0.164045209391E+02   -0.89878E-02   -0.89878E-02    40   0.147E+00    0.794E+00
DAV:   6    -0.145281240195E+02    0.18764E+01   -0.92241E+00    20   0.171E+01    0.331E+00
DAV:   7    -0.144293559198E+02    0.98768E-01   -0.13208E-01    30   0.224E+00    0.208E+00
DAV:   8    -0.143546969227E+02    0.74659E-01   -0.67079E-02    30   0.205E+00    0.183E-01
DAV:   9    -0.143558621487E+02   -0.11652E-02   -0.29603E-03    40   0.249E-01    0.144E-01
DAV:  10    -0.143614185790E+02   -0.55564E-02   -0.47155E-03    20   0.461E-01    0.642E-02
DAV:  11    -0.143674294411E+02   -0.60109E-02   -0.47631E-03    30   0.316E-01    0.980E-02
DAV:  12    -0.143703386973E+02   -0.29093E-02   -0.18254E-03    30   0.219E-01    0.244E-02
DAV:  13    -0.143727877014E+02   -0.24490E-02   -0.29449E-04    20   0.862E-02    0.101E-02
DAV:  14    -0.143732952990E+02   -0.50760E-03   -0.38826E-05    40   0.245E-02    0.924E-03
DAV:  15    -0.143739512895E+02   -0.65599E-03   -0.60469E-05    20   0.341E-02    0.345E-03
DAV:  16    -0.143740683954E+02   -0.11711E-03   -0.40809E-06    40   0.106E-02    0.175E-03
DAV:  17    -0.143741939010E+02   -0.12551E-03   -0.34255E-06    30   0.877E-03    0.197E-03
DAV:  18    -0.143742119253E+02   -0.18024E-04   -0.75843E-07    40   0.467E-03
   1 F= -.14374212E+02 E0= -.14374212E+02  d E =-.143742E+02
       N       E                     dE             d eps       ncg     rms          rms(c)
DAV:   1    -0.144718901174E+02   -0.97696E-01   -0.24789E+01    20   0.417E+01    0.141E+00
DAV:   2    -0.144593600217E+02    0.12530E-01   -0.36528E-01    30   0.464E+00    0.599E-01
DAV:   3    -0.144559653675E+02    0.33947E-02   -0.23339E-02    20   0.102E+00    0.242E-01
DAV:   4    -0.144562832102E+02   -0.31784E-03   -0.30689E-03    30   0.391E-01    0.108E-01
DAV:   5    -0.144565862665E+02   -0.30306E-03   -0.73095E-04    40   0.210E-01    0.202E-02
DAV:   6    -0.144568390521E+02   -0.25279E-03   -0.69209E-05    30   0.589E-02    0.108E-02
DAV:   7    -0.144569905401E+02   -0.15149E-03   -0.38580E-05    40   0.354E-02    0.641E-03
DAV:   8    -0.144572396351E+02   -0.24909E-03   -0.37406E-05    30   0.244E-02    0.304E-03
DAV:   9    -0.144573617409E+02   -0.12211E-03   -0.13617E-05    30   0.156E-02    0.158E-03
DAV:  10    -0.144574276193E+02   -0.65878E-04   -0.52616E-06    20   0.869E-03
   2 F= -.14457428E+02 E0= -.14457428E+02  d E =-.832157E-01
       N       E                     dE             d eps       ncg     rms          rms(c)
DAV:   1    -0.144144383542E+02    0.42923E-01   -0.46099E+00    20   0.179E+01    0.716E-01
DAV:   2    -0.144110759273E+02    0.33624E-02   -0.98481E-02    30   0.229E+00    0.250E-01
DAV:   3    -0.144104399230E+02    0.63600E-03   -0.11413E-03    20   0.281E-01    0.137E-01
DAV:   4    -0.144107385980E+02   -0.29868E-03   -0.12381E-03    30   0.297E-01    0.197E-02
DAV:   5    -0.144108187800E+02   -0.80182E-04   -0.14118E-04    30   0.926E-02
   3 F= -.14410819E+02 E0= -.14410819E+02  d E =-.366069E-01
       N       E                     dE             d eps       ncg     rms          rms(c)
DAV:   1    -0.144646210031E+02   -0.53882E-01   -0.30417E+00    20   0.146E+01    0.538E-01
DAV:   2    -0.144624377746E+02    0.21832E-02   -0.47930E-02    30   0.165E+00    0.205E-01
DAV:   3    -0.144622088663E+02    0.22891E-03   -0.11848E-03    20   0.259E-01    0.966E-02
DAV:   4    -0.144623961939E+02   -0.18733E-03   -0.33919E-04    20   0.158E-01    0.178E-02
DAV:   5    -0.144624119384E+02   -0.15744E-04   -0.45979E-05    30   0.471E-02
   4 F= -.14462412E+02 E0= -.14462412E+02  d E =-.882000E-01
       N       E                     dE             d eps       ncg     rms          rms(c)
DAV:   1    -0.144492343100E+02    0.13162E-01   -0.75701E-01    20   0.728E+00    0.285E-01
DAV:   2    -0.144486686439E+02    0.56567E-03   -0.15052E-02    30   0.905E-01    0.991E-02
DAV:   3    -0.144486157558E+02    0.52888E-04   -0.16588E-04    30   0.108E-01    0.533E-02
DAV:   4    -0.144486806107E+02   -0.64855E-04   -0.16941E-04    30   0.110E-01    0.722E-03
DAV:   5    -0.144486842125E+02   -0.36018E-05   -0.16922E-05    20   0.308E-02
   5 F= -.14448684E+02 E0= -.14448684E+02  d E =-.744723E-01
