 vasp.6.4.3 19Mar24 (build Jul 09 2024 15:45:28) complex                        
  
 executed on             LinuxIFC date 2024.10.29  12:23:36
 running   40 mpi-ranks, on    1 nodes
 distrk:  each k-point on   40 cores,    1 groups
 distr:  one band on NCORE=   4 cores,   10 groups


--------------------------------------------------------------------------------------------------------


 INCAR:
   ENCUT = 400.000000
   POTIM = 0.150000
   EDIFF = 1.00e-04
   EDIFFG = -1.00e-01
   ALGO = Normal
   GGA = PE
   PREC = Normal
   IBRION = 2
   ISMEAR = 0
   ISPIN = 1
   LORBIT = 10
   NELM = 30
   NELMIN = 5
   NPAR = 10
   NSIM = 10
   NSW = 5
   KGAMMA = .TRUE.
   LASPH = .TRUE.
   LCHARG = .FALSE.
   LDIPOL = .FALSE.
   LWAVE = .FALSE.
   LREAL = .TRUE.

 POTCAR:    PAW_PBE O 08Apr2002                   
 POTCAR:    PAW_PBE H 15Jun2001                   
 POTCAR:    PAW_PBE O 08Apr2002                   
   SHA256 =  818f92134a0a090dccd8ba1447fa70422a3b330e708bb4f08108d8ae51209ddf O/POTCAR              
   COPYR  = (c) Copyright 08Apr2002 Georg Kresse                                                    
   COPYR  = This file is part of the software VASP. Any use, copying, and all other rights are regul
   COPYR  = If you do not have a valid VASP license, you may not use, copy or distribute this file. 
   VRHFIN =O: s2p4                                                                                  
   LEXCH  = PE                                                                                      
   EATOM  =   432.3788 eV,   31.7789 Ry                                                             
                                                                                                    
   TITEL  = PAW_PBE O 08Apr2002                                                                     
   LULTRA =        F    use ultrasoft PP ?                                                          
   IUNSCR =        1    unscreen: 0-lin 1-nonlin 2-no                                               
   RPACOR =    1.200    partial core radius                                                         
   POMASS =   16.000; ZVAL   =    6.000    mass and valenz                                          
   RCORE  =    1.520    outmost cutoff radius                                                       
   RWIGS  =    1.550; RWIGS  =    0.820    wigner-seitz radius (au A)                               
   ENMAX  =  400.000; ENMIN  =  300.000 eV                                                          
   ICORE  =        2    local potential                                                             
   LCOR   =        T    correct aug charges                                                         
   LPAW   =        T    paw PP                                                                      
   EAUG   =  605.392                                                                                
   DEXC   =    0.000                                                                                
   RMAX   =    1.553    core radius for proj-oper                                                   
   RAUG   =    1.300    factor for augmentation sphere                                              
   RDEP   =    1.550    radius for radial grids                                                     
   RDEPT  =    1.329    core radius for aug-charge                                                  
                                                                                                    
   Atomic configuration                                                                             
    4 entries                                                                                       
     n  l   j            E        occ.                                                              
     1  0  0.50      -514.6923   2.0000                                                             
     2  0  0.50       -23.9615   2.0000                                                             
     2  1  0.50        -9.0305   4.0000                                                             
     3  2  1.50        -9.5241   0.0000                                                             
   Description                                                                                      
     l       E           TYP  RCUT    TYP  RCUT                                                     
     0    -23.9615318     23  1.200                                                                 
     0     -9.5240782     23  1.200                                                                 
     1     -9.0304911     23  1.520                                                                 
     1      8.1634956     23  1.520                                                                 
     2     -9.5240782      7  1.500                                                                 
  local pseudopotential read in
  partial core-charges read in
  partial kinetic energy density read in
  kinetic energy density of atom read in
  atomic valenz-charges read in
  non local Contribution for L=           0  read in
    real space projection operators read in
  non local Contribution for L=           0  read in
    real space projection operators read in
  non local Contribution for L=           1  read in
    real space projection operators read in
  non local Contribution for L=           1  read in
    real space projection operators read in
    PAW grid and wavefunctions read in
 
   number of l-projection  operators is LMAX  =           4
   number of lm-projection operators is LMMAX =           8
 
 POTCAR:    PAW_PBE H 15Jun2001                   
   SHA256 =  030f79b5d3ab3cf0e668861823c8fb652ff669f3e15e46930bd03bfd63a607b6 H/POTCAR              
   COPYR  = (c) Copyright 15Jun2001 Georg Kresse                                                    
   COPYR  = This file is part of the software VASP. Any use, copying, and all other rights are regul
   COPYR  = If you do not have a valid VASP license, you may not use, copy or distribute this file. 
   VRHFIN =H: ultrasoft test                                                                        
   LEXCH  = PE                                                                                      
   EATOM  =    12.4884 eV,    0.9179 Ry                                                             
                                                                                                    
   TITEL  = PAW_PBE H 15Jun2001                                                                     
   LULTRA =        F    use ultrasoft PP ?                                                          
   IUNSCR =        0    unscreen: 0-lin 1-nonlin 2-no                                               
   RPACOR =    0.000    partial core radius                                                         
   POMASS =    1.000; ZVAL   =    1.000    mass and valenz                                          
   RCORE  =    1.100    outmost cutoff radius                                                       
   RWIGS  =    0.700; RWIGS  =    0.370    wigner-seitz radius (au A)                               
   ENMAX  =  250.000; ENMIN  =  200.000 eV                                                          
   RCLOC  =    0.701    cutoff for local pot                                                        
   LCOR   =        T    correct aug charges                                                         
   LPAW   =        T    paw PP                                                                      
   EAUG   =  400.000                                                                                
   RMAX   =    1.123    core radius for proj-oper                                                   
   RAUG   =    1.200    factor for augmentation sphere                                              
   RDEP   =    1.112    radius for radial grids                                                     
   RDEPT  =    0.926    core radius for aug-charge                                                  
                                                                                                    
   Atomic configuration                                                                             
    2 entries                                                                                       
     n  l   j            E        occ.                                                              
     1  0  0.50        -6.4927   1.0000                                                             
     2  1  0.50        -3.4015   0.0000                                                             
   Description                                                                                      
     l       E           TYP  RCUT    TYP  RCUT                                                     
     0     -6.4927494     23  1.100                                                                 
     0      6.8029130     23  1.100                                                                 
     1     -4.0817478     23  1.100                                                                 
  local pseudopotential read in
  atomic valenz-charges read in
  non local Contribution for L=           0  read in
    real space projection operators read in
  non local Contribution for L=           0  read in
    real space projection operators read in
  non local Contribution for L=           1  read in
    real space projection operators read in
    PAW grid and wavefunctions read in
 
   number of l-projection  operators is LMAX  =           3
   number of lm-projection operators is LMMAX =           5
 
 -----------------------------------------------------------------------------
|                                                                             |
|               ----> ADVICE to this user running VASP <----                  |
|                                                                             |
|     You have a (more or less) 'small supercell' and for smaller cells       |
|     it is recommended to use the reciprocal-space projection scheme!        |
|     The real-space optimization is not efficient for small cells and it     |
|     is also less accurate ...                                               |
|     Therefore, set LREAL=.FALSE. in the INCAR file.                         |
|                                                                             |
 -----------------------------------------------------------------------------

 -----------------------------------------------------------------------------
|                                                                             |
|           W    W    AA    RRRRR   N    N  II  N    N   GGGG   !!!           |
|           W    W   A  A   R    R  NN   N  II  NN   N  G    G  !!!           |
|           W    W  A    A  R    R  N N  N  II  N N  N  G       !!!           |
|           W WW W  AAAAAA  RRRRR   N  N N  II  N  N N  G  GGG   !            |
|           WW  WW  A    A  R   R   N   NN  II  N   NN  G    G                |
|           W    W  A    A  R    R  N    N  II  N    N   GGGG   !!!           |
|                                                                             |
|     The real-space projection scheme for the treatment of the non-local     |
|     pseudopotentials has been switched on but on file POTCAR I have not     |
|     found any entries, signalling me that you have never performed a        |
|     real-space optimization of all non-local projectors! BE WARNED that     |
|     a calculation using the real-space projection scheme together with      |
|     non-local projectors which were not real-space optimized (according     |
|     to the plane-wave cutoff used in this calculation) might give more      |
|     or less inaccurate results. I hope you know what you are doing.         |
|                                                                             |
 -----------------------------------------------------------------------------

  PAW_PBE O 08Apr2002                   :
 energy of atom  1       EATOM= -432.3788
 kinetic energy error for atom=    0.1156 (will be added to EATOM!!)
  PAW_PBE H 15Jun2001                   :
 energy of atom  2       EATOM=  -12.4884
 kinetic energy error for atom=    0.0098 (will be added to EATOM!!)
 
 
 POSCAR: O  H
  positions in cartesian coordinates
  No initial velocities read in


 exchange-correlation table for PE
   RHO(1)=    0.500       N(1)  =     2000
   RHO(2)=  100.500       N(2)  =     4000

 VTST: version 4.1, (05/19/21)

 CHAIN: initializing optimizer
 
 OPT: Using VASP Conjugate-Gradient optimizer
 CHAIN: Read ICHAIN            0
 
 POSCAR: O  H
  positions in cartesian coordinates
  No initial velocities read in
 


--------------------------------------------------------------------------------------------------------


 ion  position               nearest neighbor table
   1  0.500  0.500  0.515-   2 0.97   3 0.97
   2  0.500  0.538  0.485-   1 0.97
   3  0.500  0.462  0.485-   1 0.97
 
  LATTYP: Found a simple cubic cell.
 ALAT       =    20.0000000000
  
  Lattice vectors:
  
 A1 = (  20.0000000000,   0.0000000000,   0.0000000000)
 A2 = (   0.0000000000,  20.0000000000,   0.0000000000)
 A3 = (   0.0000000000,   0.0000000000,  20.0000000000)


Analysis of symmetry for initial positions (statically):
=====================================================================
 Subroutine PRICEL returns:
 Original cell was already a primitive cell.
 

 Routine SETGRP: Setting up the symmetry group for a 
 simple cubic supercell.


 Subroutine GETGRP returns: Found  4 space group operations
 (whereof  4 operations were pure point group operations)
 out of a pool of 48 trial point group operations.


The static configuration has the point symmetry C_2v.


Analysis of symmetry for dynamics (positions and initial velocities):
=====================================================================
 Subroutine PRICEL returns:
 Original cell was already a primitive cell.
 

 Routine SETGRP: Setting up the symmetry group for a 
 simple cubic supercell.


 Subroutine GETGRP returns: Found  4 space group operations
 (whereof  4 operations were pure point group operations)
 out of a pool of 48 trial point group operations.


The dynamic configuration has the point symmetry C_2v.


 Subroutine INISYM returns: Found  4 space group operations
 (whereof  4 operations are pure point group operations),
 and found     1 'primitive' translations


----------------------------------------------------------------------------------------

                                     Primitive cell                                     

  volume of cell :    8000.0000

  direct lattice vectors                    reciprocal lattice vectors
    20.000000000  0.000000000  0.000000000     0.050000000  0.000000000  0.000000000
     0.000000000 20.000000000  0.000000000     0.000000000  0.050000000  0.000000000
     0.000000000  0.000000000 20.000000000     0.000000000  0.000000000  0.050000000

  length of vectors
    20.000000000 20.000000000 20.000000000     0.050000000  0.050000000  0.050000000

  position of ions in fractional coordinates (direct lattice)
     0.500000000  0.500000000  0.514907725
     0.500000000  0.538161950  0.485092275
     0.500000000  0.461838050  0.485092275

  ion indices of the primitive-cell ions
   primitive index   ion index
                 1           1
                 2           2
                 3           3

----------------------------------------------------------------------------------------

 
 
 KPOINTS: KPOINTS created by Atomic Simulation Env

Automatic generation of k-mesh.
 Grid dimensions read from file:
 generate k-points for:    1    1    1

 Generating k-lattice:

  Cartesian coordinates                     Fractional coordinates (reciprocal lattice)
     0.050000000  0.000000000  0.000000000     1.000000000  0.000000000  0.000000000
     0.000000000  0.050000000  0.000000000     0.000000000  1.000000000  0.000000000
     0.000000000  0.000000000  0.050000000     0.000000000  0.000000000  1.000000000

  Length of vectors
     0.050000000  0.050000000  0.050000000

  Shift w.r.t. Gamma in fractional coordinates (k-lattice)
     0.000000000  0.000000000  0.000000000

 
 Subroutine IBZKPT returns following result:
 ===========================================
 
 Found      1 irreducible k-points:
 
 Following reciprocal coordinates:
            Coordinates               Weight
  0.000000  0.000000  0.000000      1.000000
 
 Following cartesian coordinates:
            Coordinates               Weight
  0.000000  0.000000  0.000000      1.000000
 


--------------------------------------------------------------------------------------------------------




 Dimension of arrays:
   k-points           NKPTS =      1   k-points in BZ     NKDIM =      1   number of bands    NBANDS=     10
   number of dos      NEDOS =    301   number of ions     NIONS =      3
   non local maximal  LDIM  =      4   non local SUM 2l+1 LMDIM =      8
   total plane-waves  NPLWV = 941192
   max r-space proj   IRMAX =    323   max aug-charges    IRDMAX=   1726
   dimension x,y,z NGX =    98 NGY =   98 NGZ =   98
   dimension x,y,z NGXF=   196 NGYF=  196 NGZF=  196
   support grid    NGXF=   196 NGYF=  196 NGZF=  196
   ions per type =               1   2
   NGX,Y,Z   is equivalent  to a cutoff of   8.15,  8.15,  8.15 a.u.
   NGXF,Y,Z  is equivalent  to a cutoff of  16.29, 16.29, 16.29 a.u.

 SYSTEM =  unknown system                          
 POSCAR =  O  H                                    

 Startparameter for this run:
   NWRITE =      2    write-flag & timer
   PREC   = normal    normal or accurate (medium, high low for compatibility)
   ISTART =      0    job   : 0-new  1-cont  2-samecut
   ICHARG =      2    charge: 1-file 2-atom 10-const
   ISPIN  =      1    spin polarized calculation?
   LNONCOLLINEAR =      F non collinear calculations
   LSORBIT =      F    spin-orbit coupling
   INIWAV =      1    electr: 0-lowe 1-rand  2-diag
   LASPH  =      T    aspherical Exc in radial PAW
 Electronic Relaxation 1
   ENCUT  =  400.0 eV  29.40 Ry    5.42 a.u.  32.61 32.61 32.61*2*pi/ulx,y,z
   ENINI  =  400.0     initial cutoff
   ENAUG  =  605.4 eV  augmentation charge cutoff
   NELM   =     30;   NELMIN=  5; NELMDL=  0     # of ELM steps 
   EDIFF  = 0.1E-03   stopping-criterion for ELM
   LREAL  =      T    real-space projection
   NLSPLINE    = F    spline interpolate recip. space projectors
   LCOMPAT=      F    compatible to vasp.4.4
   GGA_COMPAT  = T    GGA compatible to vasp.4.4-vasp.4.6
   LMAXPAW     = -100 max onsite density
   LMAXMIX     =    2 max onsite mixed and CHGCAR
   VOSKOWN=      0    Vosko Wilk Nusair interpolation
   ROPT   =    0.00000   0.00000
 Ionic relaxation
   EDIFFG = -.1E+00   stopping-criterion for IOM
   NSW    =      5    number of steps for IOM
   NBLOCK =      1;   KBLOCK =      5    inner block; outer block 
   IBRION =      2    ionic relax: 0-MD 1-quasi-New 2-CG
   NFREE  =      1    steps in history (QN), initial steepest desc. (CG)
   ISIF   =      2    stress and relaxation
   IWAVPR =     11    prediction:  0-non 1-charg 2-wave 3-comb
   ISYM   =      2    0-nonsym 1-usesym 2-fastsym
   LCORR  =      T    Harris-Foulkes like correction to forces

   POTIM  = 0.1500    time-step for ionic-motion
   TEIN   =    0.0    initial temperature
   TEBEG  =    0.0;   TEEND  =   0.0 temperature during run
   SMASS  =  -3.00    Nose mass-parameter (am)
   estimated Nose-frequenzy (Omega)   =  0.10E-29 period in steps = 0.42E+47 mass=  -0.914E-26a.u.
   SCALEE = 1.0000    scale energy and forces
   NPACO  =    256;   APACO  = 10.0  distance and # of slots for P.C.
   PSTRESS=    0.0 pullay stress

  Mass of Ions in am
   POMASS =  16.00  1.00
  Ionic Valenz
   ZVAL   =   6.00  1.00
  Atomic Wigner-Seitz radii
   RWIGS  =  -1.00 -1.00
  virtual crystal weights 
   VCA    =   1.00  1.00
   NELECT =       8.0000    total number of electrons
   NUPDOWN=      -1.0000    fix difference up-down

 DOS related values:
   EMIN   =  10.00;   EMAX   =-10.00  energy-range for DOS
   EFERMI =   0.00;   METHOD = LEGACY      
   ISMEAR =     0;   SIGMA  =   0.20  broadening in eV -4-tet -1-fermi 0-gaus

 Electronic relaxation 2 (details)
   IALGO  =     38    algorithm
   LDIAG  =      T    sub-space diagonalisation (order eigenvalues)
   LSUBROT=      F    optimize rotation matrix (better conditioning)
   TURBO    =      0    0=normal 1=particle mesh
   IRESTART =      0    0=no restart 2=restart with 2 vectors
   NREBOOT  =      0    no. of reboots
   NMIN     =      0    reboot dimension
   EREF     =   0.00    reference energy to select bands
   IMIX   =      4    mixing-type and parameters
     AMIX     =   0.40;   BMIX     =  1.00
     AMIX_MAG =   1.60;   BMIX_MAG =  1.00
     AMIN     =   0.10
     WC   =   100.;   INIMIX=   1;  MIXPRE=   1;  MAXMIX= -45

 Intra band minimization:
   WEIMIN = 0.0010     energy-eigenvalue tresh-hold
   EBREAK =  0.25E-05  absolut break condition
   DEPER  =   0.30     relativ break condition  

   TIME   =   0.40     timestep for ELM

  volume/ion in A,a.u.               =    2666.67     17995.55
  Fermi-wavevector in a.u.,A,eV,Ry     =   0.163710  0.309367  0.364649  0.026801
  Thomas-Fermi vector in A             =   0.862763
 
 Write flags
   LWAVE        =      F    write WAVECAR
   LDOWNSAMPLE  =      F    k-point downsampling of WAVECAR
   LCHARG       =      F    write CHGCAR
   LVTOT        =      F    write LOCPOT, total local potential
   LVHAR        =      F    write LOCPOT, Hartree potential only
   WRT_POTENTIAL= false  ! write potential to hdf5 file
   LELF         =      F    write electronic localiz. function (ELF)
   LORBIT       =     10    0 simple, 1 ext, 2 COOP (PROOUT), +10 PAW based schemes


 Dipole corrections
   LMONO      =      F    monopole corrections only (constant potential shift)
   LDIPOL     =      F    correct potential (dipole corrections)
   IDIPOL     =      0    1-x, 2-y, 3-z, 4-all directions 
   EPSILON    =  1.0000000 bulk dielectric constant
   LVACPOTAV  =      F  vacuum potentials using an averaging scheme for the charge density
   VACPOTFLAT =  0.1000000 required flatness to determine vacuum potential
 Exchange correlation treatment:
   GGA     = PE    functional components
   XC_C    = 1    coefficients multiplying the functional components
   LIBXC   =     F    Libxc                    
   VOSKOWN =     0    Vosko Wilk Nusair interpolation
   LHFCALC =     F    Hartree Fock is set to
   LHFONE  =     F    Hartree Fock one center treatment
   AEXX    =    0.0000 exact exchange contribution

 Parameters of functionals:
   PE:
     No parameter
 
 Van der Waals corrections
   IVDW    =     0    specifies the selected vdW correction

 Linear response parameters
   LEPSILON=     F    determine dielectric tensor
   LRPA    =     F    only Hartree local field effects (RPA)
   LNABLA  =     F    use nabla operator in PAW spheres
   LVEL    =     F    velocity operator in full k-point grid
   CSHIFT  =0.1000    complex shift for real part using Kramers Kronig
   OMEGAMAX=  -1.0    maximum frequency
   DEG_THRESHOLD= 0.2000000E-02 threshold for treating states as degnerate
   RTIME   =   -0.100 relaxation time in fs
  (WPLASMAI=    0.000 imaginary part of plasma frequency in eV, 0.658/RTIME)
   DFIELD  = 0.0000000 0.0000000 0.0000000 field for delta impulse in time
 
  Optional k-point grid parameters
   LKPOINTS_OPT  =     F    use optional k-point grid
   KPOINTS_OPT_MODE=     1    mode for optional k-point grid
 
 Orbital magnetization related:
   ORBITALMAG=     F  switch on orbital magnetization
   LCHIMAG   =     F  perturbation theory with respect to B field
   DQ        =  0.001000  dq finite difference perturbation B field
   LLRAUG    =     F  two centre corrections for induced B field
   LBONE     =     F  B-component reconstruction in AE one-centre
   LVGVCALC  =     T  calculate vGv susceptibility
   LVGVAPPL  =     F  apply vGv susceptibility instead of pGv for G=0

 Random number generation:
   RANDOM_GENERATOR = DEFAULT
   PCG_SEED         = not used


--------------------------------------------------------------------------------------------------------


 conjugate gradient relaxation of ions
 charge density and potential will be updated during run
 non-spin polarized calculation
 Variant of blocked Davidson
 Davidson routine will perform the subspace rotation
 perform sub-space diagonalisation
    after iterative eigenvector-optimisation
 modified Broyden-mixing scheme, WC =      100.0
 initial mixing is a Kerker type mixing with AMIX =  0.4000 and BMIX =      1.0000
 Hartree-type preconditioning will be used
 using additional bands            6
 real space projection scheme for non local part
 use partial core corrections
 calculate Harris-corrections to forces 
   (improved forces if not selfconsistent)
 use gradient corrections 
 use of overlap-Matrix (Vanderbilt PP)
 Gauss-broadening in eV      SIGMA  =   0.20


--------------------------------------------------------------------------------------------------------


  energy-cutoff  :      400.00
  volume of cell :     8000.00
      direct lattice vectors                 reciprocal lattice vectors
    20.000000000  0.000000000  0.000000000     0.050000000  0.000000000  0.000000000
     0.000000000 20.000000000  0.000000000     0.000000000  0.050000000  0.000000000
     0.000000000  0.000000000 20.000000000     0.000000000  0.000000000  0.050000000

  length of vectors
    20.000000000 20.000000000 20.000000000     0.050000000  0.050000000  0.050000000


 
 k-points in units of 2pi/SCALE and weight: KPOINTS created by Atomic Simulation Env
   0.00000000  0.00000000  0.00000000       1.000
 
 k-points in reciprocal lattice and weights: KPOINTS created by Atomic Simulation Env
   0.00000000  0.00000000  0.00000000       1.000
 
 position of ions in fractional coordinates (direct lattice) 
   0.50000000  0.50000000  0.51490773
   0.50000000  0.53816195  0.48509227
   0.50000000  0.46183805  0.48509227
 
 position of ions in cartesian coordinates  (Angst):
  10.00000000 10.00000000 10.29815450
  10.00000000 10.76323900  9.70184550
  10.00000000  9.23676100  9.70184550
 


--------------------------------------------------------------------------------------------------------


 k-point     1 :   0.0000 0.0000 0.0000  plane waves:  145165

 maximum and minimum number of plane-waves per node :     36308    36275

 maximum number of plane-waves:    145165
 maximum index in each direction: 
   IXMAX=   32   IYMAX=   32   IZMAX=   32
   IXMIN=  -32   IYMIN=  -32   IZMIN=  -32


 real space projection operators:
  total allocation   :         23.97 KBytes
  max/ min on nodes  :          6.94          5.19


 parallel 3D FFT for wavefunctions:
    minimum data exchange during FFTs selected (reduces bandwidth)
 parallel 3D FFT for charge:
    minimum data exchange during FFTs selected (reduces bandwidth)


 total amount of memory used by VASP MPI-rank0    64998. kBytes
=======================================================================

   base      :      30000. kBytes
   nonlr-proj:         20. kBytes
   fftplans  :      13916. kBytes
   grid      :      20478. kBytes
   one-center:          3. kBytes
   wavefun   :        581. kBytes
 
     INWAV:  cpu time      0.0001: real time      0.0002
 Broyden mixing: mesh for mixing (old mesh)
   NGX = 65   NGY = 65   NGZ = 65
  (NGX  =196   NGY  =196   NGZ  =196)
  gives a total of 274625 points

 initial charge density was supplied:
 charge density of overlapping atoms calculated
 number of electron       8.0000000 magnetization 
 keeping initial charge density in first step


--------------------------------------------------------------------------------------------------------


 Maximum index for non-local projection operator           66
 Maximum index for augmentation-charges            0 (set IRDMAX)


--------------------------------------------------------------------------------------------------------


 First call to EWALD:  gamma=   0.089
 Maximum number of real-space cells 3x 3x 3
 Maximum number of reciprocal cells 3x 3x 3

    FEWALD:  cpu time      0.0013: real time      0.0013


--------------------------------------- Ionic step        1  -------------------------------------------




--------------------------------------- Iteration      1(   1)  ---------------------------------------


    POTLOK:  cpu time      0.1254: real time      0.1264
    SETDIJ:  cpu time      0.0475: real time      0.0477
     EDDAV:  cpu time      0.1220: real time      0.1224
       DOS:  cpu time      0.0012: real time      0.0012
    --------------------------------------------
      LOOP:  cpu time      0.2961: real time      0.2977

 eigenvalue-minimisations  :    30
 total energy-change (2. order) : 0.7455709E+02  (-0.1138098E+03)
 number of electron       8.0000000 magnetization 
 augmentation part        8.0000000 magnetization 

 Free energy of the ion-electron system (eV)
  ---------------------------------------------------
  alpha Z        PSCENC =         0.02803141
  Ewald energy   TEWEN  =       122.51986850
  -Hartree energ DENC   =      -481.04347262
  -exchange      EXHF   =         0.00000000
  -V(xc)+E(xc)   XCENC  =        32.19540901
  PAW double counting   =       350.81753176     -352.63395800
  entropy T*S    EENTRO =        -0.24613882
  eigenvalues    EBANDS =       -54.30063955
  atomic energy  EATOM  =       457.22046137
  Solvation  Ediel_sol  =         0.00000000
  ---------------------------------------------------
  free energy    TOTEN  =        74.55709306 eV

  energy without entropy =       74.80323188  energy(sigma->0) =       74.68016247


--------------------------------------------------------------------------------------------------------




--------------------------------------- Iteration      1(   2)  ---------------------------------------


     EDDAV:  cpu time      0.1578: real time      0.1599
       DOS:  cpu time      0.0001: real time      0.0001
    --------------------------------------------
      LOOP:  cpu time      0.1579: real time      0.1600

 eigenvalue-minimisations  :    40
 total energy-change (2. order) :-0.6740438E+02  (-0.6388740E+02)
 number of electron       8.0000000 magnetization 
 augmentation part        8.0000000 magnetization 

 Free energy of the ion-electron system (eV)
  ---------------------------------------------------
  alpha Z        PSCENC =         0.02803141
  Ewald energy   TEWEN  =       122.51986850
  -Hartree energ DENC   =      -481.04347262
  -exchange      EXHF   =         0.00000000
  -V(xc)+E(xc)   XCENC  =        32.19540901
  PAW double counting   =       350.81753176     -352.63395800
  entropy T*S    EENTRO =        -0.00000000
  eigenvalues    EBANDS =      -121.95116279
  atomic energy  EATOM  =       457.22046137
  Solvation  Ediel_sol  =         0.00000000
  ---------------------------------------------------
  free energy    TOTEN  =         7.15270864 eV

  energy without entropy =        7.15270864  energy(sigma->0) =        7.15270864


--------------------------------------------------------------------------------------------------------




--------------------------------------- Iteration      1(   3)  ---------------------------------------


     EDDAV:  cpu time      0.0866: real time      0.0941
       DOS:  cpu time      0.0001: real time      0.0001
    --------------------------------------------
      LOOP:  cpu time      0.0867: real time      0.0942

 eigenvalue-minimisations  :    20
 total energy-change (2. order) :-0.2242121E+02  (-0.2242121E+02)
 number of electron       8.0000000 magnetization 
 augmentation part        8.0000000 magnetization 

 Free energy of the ion-electron system (eV)
  ---------------------------------------------------
  alpha Z        PSCENC =         0.02803141
  Ewald energy   TEWEN  =       122.51986850
  -Hartree energ DENC   =      -481.04347262
  -exchange      EXHF   =         0.00000000
  -V(xc)+E(xc)   XCENC  =        32.19540901
  PAW double counting   =       350.81753176     -352.63395800
  entropy T*S    EENTRO =        -0.00000000
  eigenvalues    EBANDS =      -144.37236921
  atomic energy  EATOM  =       457.22046137
  Solvation  Ediel_sol  =         0.00000000
  ---------------------------------------------------
  free energy    TOTEN  =       -15.26849778 eV

  energy without entropy =      -15.26849778  energy(sigma->0) =      -15.26849778


--------------------------------------------------------------------------------------------------------




--------------------------------------- Iteration      1(   4)  ---------------------------------------


     EDDAV:  cpu time      0.0867: real time      0.0951
       DOS:  cpu time      0.0002: real time      0.0002
    --------------------------------------------
      LOOP:  cpu time      0.0869: real time      0.0953

 eigenvalue-minimisations  :    20
 total energy-change (2. order) :-0.1127035E+01  (-0.1127035E+01)
 number of electron       8.0000000 magnetization 
 augmentation part        8.0000000 magnetization 

 Free energy of the ion-electron system (eV)
  ---------------------------------------------------
  alpha Z        PSCENC =         0.02803141
  Ewald energy   TEWEN  =       122.51986850
  -Hartree energ DENC   =      -481.04347262
  -exchange      EXHF   =         0.00000000
  -V(xc)+E(xc)   XCENC  =        32.19540901
  PAW double counting   =       350.81753176     -352.63395800
  entropy T*S    EENTRO =        -0.00000000
  eigenvalues    EBANDS =      -145.49940454
  atomic energy  EATOM  =       457.22046137
  Solvation  Ediel_sol  =         0.00000000
  ---------------------------------------------------
  free energy    TOTEN  =       -16.39553311 eV

  energy without entropy =      -16.39553311  energy(sigma->0) =      -16.39553311


--------------------------------------------------------------------------------------------------------




--------------------------------------- Iteration      1(   5)  ---------------------------------------


     EDDAV:  cpu time      0.1594: real time      0.1679
       DOS:  cpu time      0.0003: real time      0.0005
    CHARGE:  cpu time      0.0864: real time      0.0866
    MIXING:  cpu time      0.0060: real time      0.0061
    --------------------------------------------
      LOOP:  cpu time      0.2520: real time      0.2610

 eigenvalue-minimisations  :    40
 total energy-change (2. order) :-0.8987827E-02  (-0.8987827E-02)
 number of electron       8.0000061 magnetization 
 augmentation part        0.8283220 magnetization 

 Broyden mixing:
  rms(total) = 0.79448E+00    rms(broyden)= 0.79235E+00
  rms(prec ) = 0.86917E+00
  weight for this iteration     100.00

 Free energy of the ion-electron system (eV)
  ---------------------------------------------------
  alpha Z        PSCENC =         0.02803141
  Ewald energy   TEWEN  =       122.51986850
  -Hartree energ DENC   =      -481.04347262
  -exchange      EXHF   =         0.00000000
  -V(xc)+E(xc)   XCENC  =        32.19540901
  PAW double counting   =       350.81753176     -352.63395800
  entropy T*S    EENTRO =        -0.00000000
  eigenvalues    EBANDS =      -145.50839237
  atomic energy  EATOM  =       457.22046137
  Solvation  Ediel_sol  =         0.00000000
  ---------------------------------------------------
  free energy    TOTEN  =       -16.40452094 eV

  energy without entropy =      -16.40452094  energy(sigma->0) =      -16.40452094


--------------------------------------------------------------------------------------------------------




--------------------------------------- Iteration      1(   6)  ---------------------------------------


    POTLOK:  cpu time      0.1186: real time      0.1256
    SETDIJ:  cpu time      0.0466: real time      0.0467
     EDDAV:  cpu time      0.0862: real time      0.0864
       DOS:  cpu time      0.0002: real time      0.0002
    CHARGE:  cpu time      0.0824: real time      0.0826
    MIXING:  cpu time      0.0052: real time      0.0052
    --------------------------------------------
      LOOP:  cpu time      0.3392: real time      0.3467

 eigenvalue-minimisations  :    20
 total energy-change (2. order) : 0.1876397E+01  (-0.9224075E+00)
 number of electron       8.0000052 magnetization 
 augmentation part        0.6950461 magnetization 

 Broyden mixing:
  rms(total) = 0.33073E+00    rms(broyden)= 0.33020E+00
  rms(prec ) = 0.34663E+00
  weight for this iteration     100.00

 eigenvalues of (default mixing * dielectric matrix)
  average eigenvalue GAMMA=   0.9317
  0.9317

 Free energy of the ion-electron system (eV)
  ---------------------------------------------------
  alpha Z        PSCENC =         0.02803141
  Ewald energy   TEWEN  =       122.51986850
  -Hartree energ DENC   =      -505.08290108
  -exchange      EXHF   =         0.00000000
  -V(xc)+E(xc)   XCENC  =        33.54273403
  PAW double counting   =       453.77015129     -455.90194811
  entropy T*S    EENTRO =        -0.00000000
  eigenvalues    EBANDS =      -120.62452142
  atomic energy  EATOM  =       457.22046137
  Solvation  Ediel_sol  =         0.00000000
  ---------------------------------------------------
  free energy    TOTEN  =       -14.52812402 eV

  energy without entropy =      -14.52812402  energy(sigma->0) =      -14.52812402


--------------------------------------------------------------------------------------------------------




--------------------------------------- Iteration      1(   7)  ---------------------------------------


    POTLOK:  cpu time      0.1170: real time      0.1259
    SETDIJ:  cpu time      0.0465: real time      0.0466
     EDDAV:  cpu time      0.1171: real time      0.1173
       DOS:  cpu time      0.0002: real time      0.0002
    CHARGE:  cpu time      0.0809: real time      0.0811
    MIXING:  cpu time      0.0049: real time      0.0050
    --------------------------------------------
      LOOP:  cpu time      0.3667: real time      0.3761

 eigenvalue-minimisations  :    30
 total energy-change (2. order) : 0.9876810E-01  (-0.1320770E-01)
 number of electron       8.0000051 magnetization 
 augmentation part        0.6910946 magnetization 

 Broyden mixing:
  rms(total) = 0.20813E+00    rms(broyden)= 0.20811E+00
  rms(prec ) = 0.21952E+00
  weight for this iteration     100.00

 eigenvalues of (default mixing * dielectric matrix)
  average eigenvalue GAMMA=   1.7208
  1.0421  2.3995

 Free energy of the ion-electron system (eV)
  ---------------------------------------------------
  alpha Z        PSCENC =         0.02803141
  Ewald energy   TEWEN  =       122.51986850
  -Hartree energ DENC   =      -508.75083094
  -exchange      EXHF   =         0.00000000
  -V(xc)+E(xc)   XCENC  =        33.73066072
  PAW double counting   =       501.79439018     -503.88002072
  entropy T*S    EENTRO =        -0.00000000
  eigenvalues    EBANDS =      -117.09191643
  atomic energy  EATOM  =       457.22046137
  Solvation  Ediel_sol  =         0.00000000
  ---------------------------------------------------
  free energy    TOTEN  =       -14.42935592 eV

  energy without entropy =      -14.42935592  energy(sigma->0) =      -14.42935592


--------------------------------------------------------------------------------------------------------




--------------------------------------- Iteration      1(   8)  ---------------------------------------


    POTLOK:  cpu time      0.1172: real time      0.1258
    SETDIJ:  cpu time      0.0464: real time      0.0465
     EDDAV:  cpu time      0.1174: real time      0.1176
       DOS:  cpu time      0.0001: real time      0.0001
    CHARGE:  cpu time      0.0811: real time      0.0812
    MIXING:  cpu time      0.0049: real time      0.0049
    --------------------------------------------
      LOOP:  cpu time      0.3671: real time      0.3762

 eigenvalue-minimisations  :    30
 total energy-change (2. order) : 0.7465900E-01  (-0.6707884E-02)
 number of electron       8.0000051 magnetization 
 augmentation part        0.6895782 magnetization 

 Broyden mixing:
  rms(total) = 0.18306E-01    rms(broyden)= 0.18296E-01
  rms(prec ) = 0.28272E-01
  weight for this iteration     100.00

 eigenvalues of (default mixing * dielectric matrix)
  average eigenvalue GAMMA=   1.4760
  2.4038  0.9905  1.0339

 Free energy of the ion-electron system (eV)
  ---------------------------------------------------
  alpha Z        PSCENC =         0.02803141
  Ewald energy   TEWEN  =       122.51986850
  -Hartree energ DENC   =      -514.16068443
  -exchange      EXHF   =         0.00000000
  -V(xc)+E(xc)   XCENC  =        34.02260916
  PAW double counting   =       579.50924667     -581.53116638
  entropy T*S    EENTRO =        -0.00000000
  eigenvalues    EBANDS =      -111.96306321
  atomic energy  EATOM  =       457.22046137
  Solvation  Ediel_sol  =         0.00000000
  ---------------------------------------------------
  free energy    TOTEN  =       -14.35469692 eV

  energy without entropy =      -14.35469692  energy(sigma->0) =      -14.35469692


--------------------------------------------------------------------------------------------------------




--------------------------------------- Iteration      1(   9)  ---------------------------------------


    POTLOK:  cpu time      0.1169: real time      0.1254
    SETDIJ:  cpu time      0.0464: real time      0.0465
     EDDAV:  cpu time      0.1495: real time      0.1498
       DOS:  cpu time      0.0001: real time      0.0001
    CHARGE:  cpu time      0.0809: real time      0.0811
    MIXING:  cpu time      0.0051: real time      0.0051
    --------------------------------------------
      LOOP:  cpu time      0.3989: real time      0.4080

 eigenvalue-minimisations  :    40
 total energy-change (2. order) :-0.1165226E-02  (-0.2960259E-03)
 number of electron       8.0000051 magnetization 
 augmentation part        0.6874546 magnetization 

 Broyden mixing:
  rms(total) = 0.14384E-01    rms(broyden)= 0.14381E-01
  rms(prec ) = 0.22254E-01
  weight for this iteration     100.00

 eigenvalues of (default mixing * dielectric matrix)
  average eigenvalue GAMMA=   1.9295
  0.9937  0.9937  2.5312  3.1994

 Free energy of the ion-electron system (eV)
  ---------------------------------------------------
  alpha Z        PSCENC =         0.02803141
  Ewald energy   TEWEN  =       122.51986850
  -Hartree energ DENC   =      -514.82490708
  -exchange      EXHF   =         0.00000000
  -V(xc)+E(xc)   XCENC  =        34.04578532
  PAW double counting   =       577.68998254     -579.71297509
  entropy T*S    EENTRO =        -0.00000000
  eigenvalues    EBANDS =      -111.32210911
  atomic energy  EATOM  =       457.22046137
  Solvation  Ediel_sol  =         0.00000000
  ---------------------------------------------------
  free energy    TOTEN  =       -14.35586215 eV

  energy without entropy =      -14.35586215  energy(sigma->0) =      -14.35586215


--------------------------------------------------------------------------------------------------------




--------------------------------------- Iteration      1(  10)  ---------------------------------------


    POTLOK:  cpu time      0.1172: real time      0.1256
    SETDIJ:  cpu time      0.0464: real time      0.0465
     EDDAV:  cpu time      0.0857: real time      0.0859
       DOS:  cpu time      0.0002: real time      0.0002
    CHARGE:  cpu time      0.0809: real time      0.0811
    MIXING:  cpu time      0.0054: real time      0.0054
    --------------------------------------------
      LOOP:  cpu time      0.3358: real time      0.3446

 eigenvalue-minimisations  :    20
 total energy-change (2. order) :-0.5556430E-02  (-0.4715470E-03)
 number of electron       8.0000051 magnetization 
 augmentation part        0.6876067 magnetization 

 Broyden mixing:
  rms(total) = 0.64237E-02    rms(broyden)= 0.64182E-02
  rms(prec ) = 0.99036E-02
  weight for this iteration     100.00

 eigenvalues of (default mixing * dielectric matrix)
  average eigenvalue GAMMA=   1.9136
  3.3692  1.0015  1.0015  2.0979  2.0979

 Free energy of the ion-electron system (eV)
  ---------------------------------------------------
  alpha Z        PSCENC =         0.02803141
  Ewald energy   TEWEN  =       122.51986850
  -Hartree energ DENC   =      -515.79983791
  -exchange      EXHF   =         0.00000000
  -V(xc)+E(xc)   XCENC  =        34.06029916
  PAW double counting   =       569.86995213     -571.88473862
  entropy T*S    EENTRO =        -0.00000000
  eigenvalues    EBANDS =      -110.37545461
  atomic energy  EATOM  =       457.22046137
  Solvation  Ediel_sol  =         0.00000000
  ---------------------------------------------------
  free energy    TOTEN  =       -14.36141858 eV

  energy without entropy =      -14.36141858  energy(sigma->0) =      -14.36141858


--------------------------------------------------------------------------------------------------------




--------------------------------------- Iteration      1(  11)  ---------------------------------------


    POTLOK:  cpu time      0.1168: real time      0.1256
    SETDIJ:  cpu time      0.0465: real time      0.0466
     EDDAV:  cpu time      0.1173: real time      0.1175
       DOS:  cpu time      0.0001: real time      0.0001
    CHARGE:  cpu time      0.0812: real time      0.0813
    MIXING:  cpu time      0.0052: real time      0.0052
    --------------------------------------------
      LOOP:  cpu time      0.3672: real time      0.3765

 eigenvalue-minimisations  :    30
 total energy-change (2. order) :-0.6010862E-02  (-0.4763137E-03)
 number of electron       8.0000051 magnetization 
 augmentation part        0.6848551 magnetization 

 Broyden mixing:
  rms(total) = 0.98022E-02    rms(broyden)= 0.97948E-02
  rms(prec ) = 0.11490E-01
  weight for this iteration     100.00

 eigenvalues of (default mixing * dielectric matrix)
  average eigenvalue GAMMA=   2.0990
  4.4064  2.9067  2.4668  0.9982  0.9982  0.8176

 Free energy of the ion-electron system (eV)
  ---------------------------------------------------
  alpha Z        PSCENC =         0.02803141
  Ewald energy   TEWEN  =       122.51986850
  -Hartree energ DENC   =      -516.46122497
  -exchange      EXHF   =         0.00000000
  -V(xc)+E(xc)   XCENC  =        34.08359456
  PAW double counting   =       573.51830047     -575.53778997
  entropy T*S    EENTRO =        -0.00000000
  eigenvalues    EBANDS =      -109.73867082
  atomic energy  EATOM  =       457.22046137
  Solvation  Ediel_sol  =         0.00000000
  ---------------------------------------------------
  free energy    TOTEN  =       -14.36742944 eV

  energy without entropy =      -14.36742944  energy(sigma->0) =      -14.36742944


--------------------------------------------------------------------------------------------------------




--------------------------------------- Iteration      1(  12)  ---------------------------------------


    POTLOK:  cpu time      0.1171: real time      0.1255
    SETDIJ:  cpu time      0.0473: real time      0.0474
     EDDAV:  cpu time      0.1283: real time      0.1285
       DOS:  cpu time      0.0002: real time      0.0003
    CHARGE:  cpu time      0.0833: real time      0.0835
    MIXING:  cpu time      0.0055: real time      0.0056
    --------------------------------------------
      LOOP:  cpu time      0.3817: real time      0.3908

 eigenvalue-minimisations  :    30
 total energy-change (2. order) :-0.2909256E-02  (-0.1825397E-03)
 number of electron       8.0000051 magnetization 
 augmentation part        0.6863278 magnetization 

 Broyden mixing:
  rms(total) = 0.24435E-02    rms(broyden)= 0.24393E-02
  rms(prec ) = 0.35110E-02
  weight for this iteration     100.00

 eigenvalues of (default mixing * dielectric matrix)
  average eigenvalue GAMMA=   2.1702
  4.7311  2.9757  2.5718  1.9722  1.0697  0.9353  0.9353

 Free energy of the ion-electron system (eV)
  ---------------------------------------------------
  alpha Z        PSCENC =         0.02803141
  Ewald energy   TEWEN  =       122.51986850
  -Hartree energ DENC   =      -516.29576882
  -exchange      EXHF   =         0.00000000
  -V(xc)+E(xc)   XCENC  =        34.06386134
  PAW double counting   =       571.92684353     -573.94331924
  entropy T*S    EENTRO =        -0.00000000
  eigenvalues    EBANDS =      -109.89031679
  atomic energy  EATOM  =       457.22046137
  Solvation  Ediel_sol  =         0.00000000
  ---------------------------------------------------
  free energy    TOTEN  =       -14.37033870 eV

  energy without entropy =      -14.37033870  energy(sigma->0) =      -14.37033870


--------------------------------------------------------------------------------------------------------




--------------------------------------- Iteration      1(  13)  ---------------------------------------


    POTLOK:  cpu time      0.1193: real time      0.1275
    SETDIJ:  cpu time      0.0467: real time      0.0468
     EDDAV:  cpu time      0.0857: real time      0.0858
       DOS:  cpu time      0.0002: real time      0.0002
    CHARGE:  cpu time      0.0810: real time      0.0811
    MIXING:  cpu time      0.0054: real time      0.0055
    --------------------------------------------
      LOOP:  cpu time      0.3383: real time      0.3469

 eigenvalue-minimisations  :    20
 total energy-change (2. order) :-0.2449004E-02  (-0.2944929E-04)
 number of electron       8.0000051 magnetization 
 augmentation part        0.6865766 magnetization 

 Broyden mixing:
  rms(total) = 0.10127E-02    rms(broyden)= 0.10093E-02
  rms(prec ) = 0.15509E-02
  weight for this iteration     100.00

 eigenvalues of (default mixing * dielectric matrix)
  average eigenvalue GAMMA=   2.2841
  6.2566  3.3522  2.4731  2.3836  1.0049  1.0049  0.8986  0.8986

 Free energy of the ion-electron system (eV)
  ---------------------------------------------------
  alpha Z        PSCENC =         0.02803141
  Ewald energy   TEWEN  =       122.51986850
  -Hartree energ DENC   =      -516.25924164
  -exchange      EXHF   =         0.00000000
  -V(xc)+E(xc)   XCENC  =        34.05680523
  PAW double counting   =       571.63572500     -573.65062313
  entropy T*S    EENTRO =        -0.00000000
  eigenvalues    EBANDS =      -109.92381444
  atomic energy  EATOM  =       457.22046137
  Solvation  Ediel_sol  =         0.00000000
  ---------------------------------------------------
  free energy    TOTEN  =       -14.37278770 eV

  energy without entropy =      -14.37278770  energy(sigma->0) =      -14.37278770


--------------------------------------------------------------------------------------------------------




--------------------------------------- Iteration      1(  14)  ---------------------------------------


    POTLOK:  cpu time      0.1168: real time      0.1256
    SETDIJ:  cpu time      0.0464: real time      0.0465
     EDDAV:  cpu time      0.1497: real time      0.1499
       DOS:  cpu time      0.0001: real time      0.0001
    CHARGE:  cpu time      0.0809: real time      0.0810
    MIXING:  cpu time      0.0057: real time      0.0058
    --------------------------------------------
      LOOP:  cpu time      0.3996: real time      0.4090

 eigenvalue-minimisations  :    40
 total energy-change (2. order) :-0.5075976E-03  (-0.3882598E-05)
 number of electron       8.0000051 magnetization 
 augmentation part        0.6865794 magnetization 

 Broyden mixing:
  rms(total) = 0.92382E-03    rms(broyden)= 0.92365E-03
  rms(prec ) = 0.12525E-02
  weight for this iteration     100.00

 eigenvalues of (default mixing * dielectric matrix)
  average eigenvalue GAMMA=   2.5549
  7.3714  4.1486  2.9458  2.4488  2.1418  1.0414  1.0414  0.9276  0.9276

 Free energy of the ion-electron system (eV)
  ---------------------------------------------------
  alpha Z        PSCENC =         0.02803141
  Ewald energy   TEWEN  =       122.51986850
  -Hartree energ DENC   =      -516.24981890
  -exchange      EXHF   =         0.00000000
  -V(xc)+E(xc)   XCENC  =        34.05514214
  PAW double counting   =       571.50462985     -573.51933783
  entropy T*S    EENTRO =        -0.00000000
  eigenvalues    EBANDS =      -109.93227183
  atomic energy  EATOM  =       457.22046137
  Solvation  Ediel_sol  =         0.00000000
  ---------------------------------------------------
  free energy    TOTEN  =       -14.37329530 eV

  energy without entropy =      -14.37329530  energy(sigma->0) =      -14.37329530


--------------------------------------------------------------------------------------------------------




--------------------------------------- Iteration      1(  15)  ---------------------------------------


    POTLOK:  cpu time      0.1172: real time      0.1254
    SETDIJ:  cpu time      0.0465: real time      0.0466
     EDDAV:  cpu time      0.0858: real time      0.0859
       DOS:  cpu time      0.0003: real time      0.0002
    CHARGE:  cpu time      0.0811: real time      0.0813
    MIXING:  cpu time      0.0059: real time      0.0058
    --------------------------------------------
      LOOP:  cpu time      0.3367: real time      0.3452

 eigenvalue-minimisations  :    20
 total energy-change (2. order) :-0.6559905E-03  (-0.6046911E-05)
 number of electron       8.0000051 magnetization 
 augmentation part        0.6864262 magnetization 

 Broyden mixing:
  rms(total) = 0.34458E-03    rms(broyden)= 0.34379E-03
  rms(prec ) = 0.47843E-03
  weight for this iteration     100.00

 eigenvalues of (default mixing * dielectric matrix)
  average eigenvalue GAMMA=   2.5078
  7.8151  4.4661  2.9840  2.4601  2.3638  0.9323  0.9323  1.0634  1.0307  1.0307

 Free energy of the ion-electron system (eV)
  ---------------------------------------------------
  alpha Z        PSCENC =         0.02803141
  Ewald energy   TEWEN  =       122.51986850
  -Hartree energ DENC   =      -516.26665242
  -exchange      EXHF   =         0.00000000
  -V(xc)+E(xc)   XCENC  =        34.05531952
  PAW double counting   =       571.38960575     -573.40437434
  entropy T*S    EENTRO =        -0.00000000
  eigenvalues    EBANDS =      -109.91621108
  atomic energy  EATOM  =       457.22046137
  Solvation  Ediel_sol  =         0.00000000
  ---------------------------------------------------
  free energy    TOTEN  =       -14.37395129 eV

  energy without entropy =      -14.37395129  energy(sigma->0) =      -14.37395129


--------------------------------------------------------------------------------------------------------




--------------------------------------- Iteration      1(  16)  ---------------------------------------


    POTLOK:  cpu time      0.1172: real time      0.1256
    SETDIJ:  cpu time      0.0464: real time      0.0465
     EDDAV:  cpu time      0.1500: real time      0.1503
       DOS:  cpu time      0.0001: real time      0.0001
    CHARGE:  cpu time      0.0813: real time      0.0815
    MIXING:  cpu time      0.0060: real time      0.0061
    --------------------------------------------
      LOOP:  cpu time      0.4011: real time      0.4100

 eigenvalue-minimisations  :    40
 total energy-change (2. order) :-0.1171058E-03  (-0.4080938E-06)
 number of electron       8.0000051 magnetization 
 augmentation part        0.6864748 magnetization 

 Broyden mixing:
  rms(total) = 0.17545E-03    rms(broyden)= 0.17538E-03
  rms(prec ) = 0.28123E-03
  weight for this iteration     100.00

 eigenvalues of (default mixing * dielectric matrix)
  average eigenvalue GAMMA=   2.6582
  8.3251  5.1444  3.1602  3.1602  2.3940  2.2066  1.0378  1.0378  0.9294  0.9294
  0.9151

 Free energy of the ion-electron system (eV)
  ---------------------------------------------------
  alpha Z        PSCENC =         0.02803141
  Ewald energy   TEWEN  =       122.51986850
  -Hartree energ DENC   =      -516.25859661
  -exchange      EXHF   =         0.00000000
  -V(xc)+E(xc)   XCENC  =        34.05485164
  PAW double counting   =       571.43716882     -573.45186595
  entropy T*S    EENTRO =        -0.00000000
  eigenvalues    EBANDS =      -109.92398758
  atomic energy  EATOM  =       457.22046137
  Solvation  Ediel_sol  =         0.00000000
  ---------------------------------------------------
  free energy    TOTEN  =       -14.37406840 eV

  energy without entropy =      -14.37406840  energy(sigma->0) =      -14.37406840


--------------------------------------------------------------------------------------------------------




--------------------------------------- Iteration      1(  17)  ---------------------------------------


    POTLOK:  cpu time      0.1168: real time      0.1253
    SETDIJ:  cpu time      0.0464: real time      0.0465
     EDDAV:  cpu time      0.1175: real time      0.1177
       DOS:  cpu time      0.0002: real time      0.0002
    CHARGE:  cpu time      0.0809: real time      0.0810
    MIXING:  cpu time      0.0062: real time      0.0062
    --------------------------------------------
      LOOP:  cpu time      0.3681: real time      0.3770

 eigenvalue-minimisations  :    30
 total energy-change (2. order) :-0.1255057E-03  (-0.3425479E-06)
 number of electron       8.0000051 magnetization 
 augmentation part        0.6865064 magnetization 

 Broyden mixing:
  rms(total) = 0.19680E-03    rms(broyden)= 0.19672E-03
  rms(prec ) = 0.22844E-03
  weight for this iteration     100.00

 eigenvalues of (default mixing * dielectric matrix)
  average eigenvalue GAMMA=   2.5944
  8.5411  5.4623  3.6478  2.7434  2.4547  2.2742  0.9189  0.9189  1.0196  1.0196
  1.0661  1.0661

 Free energy of the ion-electron system (eV)
  ---------------------------------------------------
  alpha Z        PSCENC =         0.02803141
  Ewald energy   TEWEN  =       122.51986850
  -Hartree energ DENC   =      -516.25804004
  -exchange      EXHF   =         0.00000000
  -V(xc)+E(xc)   XCENC  =        34.05455881
  PAW double counting   =       571.50705658     -573.52189693
  entropy T*S    EENTRO =        -0.00000000
  eigenvalues    EBANDS =      -109.92423359
  atomic energy  EATOM  =       457.22046137
  Solvation  Ediel_sol  =         0.00000000
  ---------------------------------------------------
  free energy    TOTEN  =       -14.37419390 eV

  energy without entropy =      -14.37419390  energy(sigma->0) =      -14.37419390


--------------------------------------------------------------------------------------------------------




--------------------------------------- Iteration      1(  18)  ---------------------------------------


    POTLOK:  cpu time      0.1167: real time      0.1254
    SETDIJ:  cpu time      0.0465: real time      0.0466
     EDDAV:  cpu time      0.1494: real time      0.1497
       DOS:  cpu time      0.0001: real time      0.0001
    --------------------------------------------
      LOOP:  cpu time      0.3127: real time      0.3218

 eigenvalue-minimisations  :    40
 total energy-change (2. order) :-0.1802427E-04  (-0.7584301E-07)
 number of electron       8.0000051 magnetization 
 augmentation part        0.6865064 magnetization 

 Free energy of the ion-electron system (eV)
  ---------------------------------------------------
  alpha Z        PSCENC =         0.02803141
  Ewald energy   TEWEN  =       122.51986850
  -Hartree energ DENC   =      -516.26584315
  -exchange      EXHF   =         0.00000000
  -V(xc)+E(xc)   XCENC  =        34.05490213
  PAW double counting   =       571.49045578     -573.50533384
  entropy T*S    EENTRO =        -0.00000000
  eigenvalues    EBANDS =      -109.91675412
  atomic energy  EATOM  =       457.22046137
  Solvation  Ediel_sol  =         0.00000000
  ---------------------------------------------------
  free energy    TOTEN  =       -14.37421193 eV

  energy without entropy =      -14.37421193  energy(sigma->0) =      -14.37421193


--------------------------------------------------------------------------------------------------------




 average (electrostatic) potential at core
  the test charge radii are     0.7215  0.5201
  (the norm of the test charge is              1.0000)
       1 -80.6258       2 -44.6335       3 -44.6335
 
 
 
 E-fermi :  -6.2986     XC(G=0):  -0.1337     alpha+bet : -0.0163

 val. band max:       -7.2317590562   @ k =   0.0000   0.0000   0.0000
 cond. band min:      -0.9720194974   @ k =   0.0000   0.0000   0.0000
 fundamental gap:      6.2597395588
 Fermi energy:        -6.2985903208

 k-point     1 :       0.0000    0.0000    0.0000
  band No.  band energies     occupation 
      1     -25.3439      2.00000
      2     -13.0971      2.00000
      3      -9.2857      2.00000
      4      -7.2318      2.00000
      5      -0.9720      0.00000
      6      -0.0242      0.00000
      7       0.2125      0.00000
      8       0.2653      0.00000
      9       0.2767      0.00000
     10       0.2963      0.00000


--------------------------------------------------------------------------------------------------------


 soft charge-density along one line, spin component           1
         0         1         2         3         4         5         6         7         8         9
 total charge-density along one line
 
 pseudopotential strength for first ion, spin component:           1
 13.803 -16.923   0.000   0.105   0.000  -0.000  -0.129  -0.000
-16.923  20.778  -0.000  -0.134  -0.000   0.000   0.164   0.000
  0.000  -0.000 -10.589   0.000  -0.000  13.129  -0.000   0.000
  0.105  -0.134   0.000 -10.506  -0.000  -0.000  13.020   0.000
  0.000  -0.000  -0.000  -0.000 -10.381   0.000   0.000  12.854
 -0.000   0.000  13.129  -0.000   0.000 -16.207   0.000  -0.000
 -0.129   0.164  -0.000  13.020   0.000   0.000 -16.063  -0.000
 -0.000   0.000   0.000   0.000  12.854  -0.000  -0.000 -15.842
 total augmentation occupancy for first ion, spin component:           1
  2.875   0.502   0.000  -0.389   0.000   0.000  -0.163   0.000
  0.502   0.133   0.000  -0.386   0.000   0.000  -0.072   0.000
  0.000   0.000   2.602   0.000   0.000   0.556   0.000   0.000
 -0.389  -0.386   0.000   2.290   0.000   0.000   0.328   0.000
  0.000   0.000   0.000   0.000   2.329   0.000   0.000   0.221
  0.000   0.000   0.556   0.000   0.000   0.119   0.000   0.000
 -0.163  -0.072   0.000   0.328   0.000   0.000   0.051   0.000
  0.000   0.000   0.000   0.000   0.221   0.000   0.000   0.021


------------------------ aborting loop because EDIFF is reached ----------------------------------------





 total charge

# of ion       s       p       d       tot
------------------------------------------
    1        1.584   3.643   0.000   5.227
    2        0.638   0.132   0.000   0.770
    3        0.638   0.132   0.000   0.770
--------------------------------------------------
tot          2.860   3.908   0.000   6.768
 
    CHARGE:  cpu time      0.0806: real time      0.0807
    FORLOC:  cpu time      0.0054: real time      0.0055
    FORNL :  cpu time      0.0278: real time      0.0279
    STRESS:  cpu time      0.0847: real time      0.0849
    FORCOR:  cpu time      0.1086: real time      0.1088
    FORHAR:  cpu time      0.0295: real time      0.0296
    MIXING:  cpu time      0.0063: real time      0.0064
    OFIELD:  cpu time      0.0001: real time      0.0000

  FORCE on cell =-STRESS in cart. coord.  units (eV):
  Direction    XX          YY          ZZ          XY          YZ          ZX
  --------------------------------------------------------------------------------------
  Alpha Z     0.02803     0.02803     0.02803
  Ewald     -21.81628    98.48873    45.84736     0.00000    -0.00000    -0.00000
  Hartree   161.07336   182.06280   173.12754    -0.00000    -0.00000    -0.00000
  E(xc)     -36.45195   -35.96312   -36.15541     0.00000     0.00000     0.00000
  Local    -249.11518  -354.47556  -307.66697    -0.00000     0.00000    -0.00000
  n-local   -32.75776   -31.02828   -32.28045    -0.00000    -0.00000    -0.00000
  augment     8.12075     5.74756     6.69447    -0.00000     0.00000    -0.00000
  Kinetic   168.54197   134.29699   149.04611     0.00000    -0.00000    -0.00000
  Fock        0.00000     0.00000     0.00000     0.00000     0.00000     0.00000
  -------------------------------------------------------------------------------------
  Total      -2.37705    -0.84285    -1.35932     0.00000     0.00000     0.00000
  in kB      -0.47606    -0.16880    -0.27223     0.00000     0.00000     0.00000
  external pressure =       -0.31 kB  Pullay stress =        0.00 kB


 VOLUME and BASIS-vectors are now :
 -----------------------------------------------------------------------------
  energy-cutoff  :      400.00
  volume of cell :     8000.00
      direct lattice vectors                 reciprocal lattice vectors
    20.000000000  0.000000000  0.000000000     0.050000000  0.000000000  0.000000000
     0.000000000 20.000000000  0.000000000     0.000000000  0.050000000  0.000000000
     0.000000000  0.000000000 20.000000000     0.000000000  0.000000000  0.050000000

  length of vectors
    20.000000000 20.000000000 20.000000000     0.050000000  0.050000000  0.050000000


 FORCES acting on ions
    electron-ion (+dipol)            ewald-force                    non-local-force                 convergence-correction
 -----------------------------------------------------------------------------------------------
   0.981E-12 0.134E-11 -.639E+02   -.176E-17 0.000E+00 0.113E+03   -.646E-26 0.129E-25 -.562E+02   -.107E-12 -.329E-13 -.155E-02
   0.682E-13 -.718E+02 0.517E+02   0.175E-18 0.787E+02 -.567E+02   0.808E-27 -.703E+01 0.488E+01   -.115E-13 -.121E-03 0.401E-04
   0.683E-13 0.718E+02 0.517E+02   -.472E-18 -.787E+02 -.567E+02   -.808E-27 0.703E+01 0.488E+01   -.118E-13 0.121E-03 0.401E-04
 -----------------------------------------------------------------------------------------------
   0.112E-11 0.134E-11 0.394E+02   -.206E-17 0.000E+00 0.000E+00   -.646E-26 0.000E+00 -.465E+02   -.130E-12 -.370E-13 -.147E-02
 
 
 POSITION                                       TOTAL-FORCE (eV/Angst)
 -----------------------------------------------------------------------------------
     10.00000     10.00000     10.29815        -0.000000      0.000000     -4.442705
     10.00000     10.76324      9.70185         0.000000     -0.140234      2.221352
     10.00000      9.23676      9.70185         0.000000      0.140234      2.221352
 -----------------------------------------------------------------------------------
    total drift:                                0.000000      0.000000     -7.107259


--------------------------------------------------------------------------------------------------------



  FREE ENERGIE OF THE ION-ELECTRON SYSTEM (eV)
  ---------------------------------------------------
  free  energy   TOTEN  =       -14.37421193 eV

  energy  without entropy=      -14.37421193  energy(sigma->0) =      -14.37421193
 


--------------------------------------------------------------------------------------------------------


    POTLOK:  cpu time      0.1631: real time      0.1635


--------------------------------------------------------------------------------------------------------


 stress matrix after NEB project (eV)
     -2.37705      0.00000      0.00000
      0.00000     -0.84285      0.00000
      0.00000      0.00000     -1.35932
  FORCES: max atom, RMS     4.442705    3.143553
  FORCE total and by dimension    5.444793    4.442705
  Stress total and by dimension    2.865053    2.377052


--------------------------------------------------------------------------------------------------------


    WAVPRE:  cpu time      0.0248: real time      0.0264
    FEWALD:  cpu time      0.0004: real time      0.0007

 real space projection operators:
  total allocation   :         23.66 KBytes
  max/ min on nodes  :          6.66          5.19

    ORTHCH:  cpu time      0.0107: real time      0.0108
     LOOP+:  cpu time      6.1833: real time      6.3394


--------------------------------------- Ionic step        2  -------------------------------------------




--------------------------------------- Iteration      2(   1)  ---------------------------------------


    POTLOK:  cpu time      0.1164: real time      0.1166
    SETDIJ:  cpu time      0.0464: real time      0.0465
     EDDAV:  cpu time      0.0857: real time      0.0859
       DOS:  cpu time      0.0002: real time      0.0002
    CHARGE:  cpu time      0.0823: real time      0.0825
    MIXING:  cpu time      0.0045: real time      0.0045
    --------------------------------------------
      LOOP:  cpu time      0.3356: real time      0.3364

 eigenvalue-minimisations  :    20
 total energy-change (2. order) :-0.9769622E-01  (-0.2478865E+01)
 number of electron       8.0000017 magnetization 
 augmentation part        0.7255924 magnetization 

 Broyden mixing:
  rms(total) = 0.14120E+00    rms(broyden)= 0.14047E+00
  rms(prec ) = 0.14784E+00
  weight for this iteration     100.00

 Free energy of the ion-electron system (eV)
  ---------------------------------------------------
  alpha Z        PSCENC =         0.02803141
  Ewald energy   TEWEN  =       133.88417093
  -Hartree energ DENC   =      -521.03323155
  -exchange      EXHF   =         0.00000000
  -V(xc)+E(xc)   XCENC  =        34.26920358
  PAW double counting   =       571.47969310     -573.49454431
  entropy T*S    EENTRO =        -0.00000000
  eigenvalues    EBANDS =      -116.82567466
  atomic energy  EATOM  =       457.22046137
  Solvation  Ediel_sol  =         0.00000000
  ---------------------------------------------------
  free energy    TOTEN  =       -14.47189012 eV

  energy without entropy =      -14.47189012  energy(sigma->0) =      -14.47189012


--------------------------------------------------------------------------------------------------------




--------------------------------------- Iteration      2(   2)  ---------------------------------------


    POTLOK:  cpu time      0.1167: real time      0.1241
    SETDIJ:  cpu time      0.0465: real time      0.0466
     EDDAV:  cpu time      0.1174: real time      0.1176
       DOS:  cpu time      0.0002: real time      0.0002
    CHARGE:  cpu time      0.0806: real time      0.0808
    MIXING:  cpu time      0.0047: real time      0.0047
    --------------------------------------------
      LOOP:  cpu time      0.3660: real time      0.3739

 eigenvalue-minimisations  :    30
 total energy-change (2. order) : 0.1253010E-01  (-0.3652791E-01)
 number of electron       8.0000016 magnetization 
 augmentation part        0.7198617 magnetization 

 Broyden mixing:
  rms(total) = 0.59907E-01    rms(broyden)= 0.59795E-01
  rms(prec ) = 0.62576E-01
  weight for this iteration     100.00

 eigenvalues of (default mixing * dielectric matrix)
  average eigenvalue GAMMA=   1.3252
  1.3252

 Free energy of the ion-electron system (eV)
  ---------------------------------------------------
  alpha Z        PSCENC =         0.02803141
  Ewald energy   TEWEN  =       133.88417093
  -Hartree energ DENC   =      -524.01458598
  -exchange      EXHF   =         0.00000000
  -V(xc)+E(xc)   XCENC  =        34.44141678
  PAW double counting   =       583.76658660     -585.80643897
  entropy T*S    EENTRO =        -0.00000000
  eigenvalues    EBANDS =      -113.97900217
  atomic energy  EATOM  =       457.22046137
  Solvation  Ediel_sol  =         0.00000000
  ---------------------------------------------------
  free energy    TOTEN  =       -14.45936002 eV

  energy without entropy =      -14.45936002  energy(sigma->0) =      -14.45936002


--------------------------------------------------------------------------------------------------------




--------------------------------------- Iteration      2(   3)  ---------------------------------------


    POTLOK:  cpu time      0.1166: real time      0.1237
    SETDIJ:  cpu time      0.0464: real time      0.0465
     EDDAV:  cpu time      0.0857: real time      0.0859
       DOS:  cpu time      0.0002: real time      0.0002
    CHARGE:  cpu time      0.0807: real time      0.0808
    MIXING:  cpu time      0.0048: real time      0.0048
    --------------------------------------------
      LOOP:  cpu time      0.3343: real time      0.3418

 eigenvalue-minimisations  :    20
 total energy-change (2. order) : 0.3394654E-02  (-0.2333899E-02)
 number of electron       8.0000016 magnetization 
 augmentation part        0.7147353 magnetization 

 Broyden mixing:
  rms(total) = 0.24185E-01    rms(broyden)= 0.24142E-01
  rms(prec ) = 0.25222E-01
  weight for this iteration     100.00

 eigenvalues of (default mixing * dielectric matrix)
  average eigenvalue GAMMA=   1.4010
  1.4010  1.4010

 Free energy of the ion-electron system (eV)
  ---------------------------------------------------
  alpha Z        PSCENC =         0.02803141
  Ewald energy   TEWEN  =       133.88417093
  -Hartree energ DENC   =      -525.21719160
  -exchange      EXHF   =         0.00000000
  -V(xc)+E(xc)   XCENC  =        34.51098666
  PAW double counting   =       591.45879373     -593.51246278
  entropy T*S    EENTRO =        -0.00000000
  eigenvalues    EBANDS =      -112.82875509
  atomic energy  EATOM  =       457.22046137
  Solvation  Ediel_sol  =         0.00000000
  ---------------------------------------------------
  free energy    TOTEN  =       -14.45596537 eV

  energy without entropy =      -14.45596537  energy(sigma->0) =      -14.45596537


--------------------------------------------------------------------------------------------------------




--------------------------------------- Iteration      2(   4)  ---------------------------------------


    POTLOK:  cpu time      0.1236: real time      0.1322
    SETDIJ:  cpu time      0.0472: real time      0.0474
     EDDAV:  cpu time      0.1220: real time      0.1223
       DOS:  cpu time      0.0002: real time      0.0003
    CHARGE:  cpu time      0.0828: real time      0.0829
    MIXING:  cpu time      0.0056: real time      0.0056
    --------------------------------------------
      LOOP:  cpu time      0.3814: real time      0.3906

 eigenvalue-minimisations  :    30
 total energy-change (2. order) :-0.3178427E-03  (-0.3068910E-03)
 number of electron       8.0000016 magnetization 
 augmentation part        0.7168587 magnetization 

 Broyden mixing:
  rms(total) = 0.10769E-01    rms(broyden)= 0.10768E-01
  rms(prec ) = 0.11359E-01
  weight for this iteration     100.00

 eigenvalues of (default mixing * dielectric matrix)
  average eigenvalue GAMMA=   1.4784
  2.3654  1.0349  1.0349

 Free energy of the ion-electron system (eV)
  ---------------------------------------------------
  alpha Z        PSCENC =         0.02803141
  Ewald energy   TEWEN  =       133.88417093
  -Hartree energ DENC   =      -525.02894192
  -exchange      EXHF   =         0.00000000
  -V(xc)+E(xc)   XCENC  =        34.50139510
  PAW double counting   =       594.07013694     -596.11791757
  entropy T*S    EENTRO =        -0.00000000
  eigenvalues    EBANDS =      -113.01361947
  atomic energy  EATOM  =       457.22046137
  Solvation  Ediel_sol  =         0.00000000
  ---------------------------------------------------
  free energy    TOTEN  =       -14.45628321 eV

  energy without entropy =      -14.45628321  energy(sigma->0) =      -14.45628321


--------------------------------------------------------------------------------------------------------




--------------------------------------- Iteration      2(   5)  ---------------------------------------


    POTLOK:  cpu time      0.1360: real time      0.1364
    SETDIJ:  cpu time      0.0466: real time      0.0467
     EDDAV:  cpu time      0.1499: real time      0.1502
       DOS:  cpu time      0.0002: real time      0.0002
    CHARGE:  cpu time      0.0810: real time      0.0812
    MIXING:  cpu time      0.0056: real time      0.0056
    --------------------------------------------
      LOOP:  cpu time      0.4192: real time      0.4202

 eigenvalue-minimisations  :    40
 total energy-change (2. order) :-0.3030563E-03  (-0.7309534E-04)
 number of electron       8.0000016 magnetization 
 augmentation part        0.7161052 magnetization 

 Broyden mixing:
  rms(total) = 0.20241E-02    rms(broyden)= 0.20181E-02
  rms(prec ) = 0.25408E-02
  weight for this iteration     100.00

 eigenvalues of (default mixing * dielectric matrix)
  average eigenvalue GAMMA=   1.6455
  2.5786  1.9251  0.9454  1.1330

 Free energy of the ion-electron system (eV)
  ---------------------------------------------------
  alpha Z        PSCENC =         0.02803141
  Ewald energy   TEWEN  =       133.88417093
  -Hartree energ DENC   =      -525.26260671
  -exchange      EXHF   =         0.00000000
  -V(xc)+E(xc)   XCENC  =        34.51507398
  PAW double counting   =       596.69153037     -598.74241598
  entropy T*S    EENTRO =        -0.00000000
  eigenvalues    EBANDS =      -112.79083164
  atomic energy  EATOM  =       457.22046137
  Solvation  Ediel_sol  =         0.00000000
  ---------------------------------------------------
  free energy    TOTEN  =       -14.45658627 eV

  energy without entropy =      -14.45658627  energy(sigma->0) =      -14.45658627


--------------------------------------------------------------------------------------------------------




--------------------------------------- Iteration      2(   6)  ---------------------------------------


    POTLOK:  cpu time      0.1201: real time      0.1250
    SETDIJ:  cpu time      0.0464: real time      0.0465
     EDDAV:  cpu time      0.1175: real time      0.1177
       DOS:  cpu time      0.0002: real time      0.0002
    CHARGE:  cpu time      0.0807: real time      0.0809
    MIXING:  cpu time      0.0053: real time      0.0053
    --------------------------------------------
      LOOP:  cpu time      0.3702: real time      0.3756

 eigenvalue-minimisations  :    30
 total energy-change (2. order) :-0.2527856E-03  (-0.6920872E-05)
 number of electron       8.0000016 magnetization 
 augmentation part        0.7158676 magnetization 

 Broyden mixing:
  rms(total) = 0.10802E-02    rms(broyden)= 0.10768E-02
  rms(prec ) = 0.14811E-02
  weight for this iteration     100.00

 eigenvalues of (default mixing * dielectric matrix)
  average eigenvalue GAMMA=   1.5635
  2.5703  2.0424  1.1022  1.1022  1.0003

 Free energy of the ion-electron system (eV)
  ---------------------------------------------------
  alpha Z        PSCENC =         0.02803141
  Ewald energy   TEWEN  =       133.88417093
  -Hartree energ DENC   =      -525.30290770
  -exchange      EXHF   =         0.00000000
  -V(xc)+E(xc)   XCENC  =        34.51653046
  PAW double counting   =       596.99009392     -599.04155483
  entropy T*S    EENTRO =        -0.00000000
  eigenvalues    EBANDS =      -112.75166461
  atomic energy  EATOM  =       457.22046137
  Solvation  Ediel_sol  =         0.00000000
  ---------------------------------------------------
  free energy    TOTEN  =       -14.45683905 eV

  energy without entropy =      -14.45683905  energy(sigma->0) =      -14.45683905


--------------------------------------------------------------------------------------------------------




--------------------------------------- Iteration      2(   7)  ---------------------------------------


    POTLOK:  cpu time      0.1165: real time      0.1252
    SETDIJ:  cpu time      0.0464: real time      0.0465
     EDDAV:  cpu time      0.1496: real time      0.1499
       DOS:  cpu time      0.0001: real time      0.0001
[...]
 -----------------------------------------------------------------------------------
    total drift:                                0.000000      0.000000     -2.044947


--------------------------------------------------------------------------------------------------------



  FREE ENERGIE OF THE ION-ELECTRON SYSTEM (eV)
  ---------------------------------------------------
  free  energy   TOTEN  =       -14.46241194 eV

  energy  without entropy=      -14.46241194  energy(sigma->0) =      -14.46241194
 
 d Force = 0.2841648E-01[-0.154E-01, 0.723E-01]  d Energy = 0.5159316E-01-0.232E-01
 d Force =-0.3998703E+01[-0.400E+01,-0.400E+01]  d Ewald  =-0.4000430E+01 0.173E-02


--------------------------------------------------------------------------------------------------------


    POTLOK:  cpu time      0.1670: real time      0.1676


--------------------------------------------------------------------------------------------------------


 stress matrix after NEB project (eV)
     -5.51221      0.00000      0.00000
      0.00000     -0.67521      0.00000
      0.00000      0.00000     -1.24107
  FORCES: max atom, RMS     1.317458    1.100340
  FORCE total and by dimension    1.905845    1.302107
  Stress total and by dimension    5.690395    5.512208


--------------------------------------------------------------------------------------------------------


    WAVPRE:  cpu time      0.0242: real time      0.0257
    FEWALD:  cpu time      0.0002: real time      0.0004

 real space projection operators:
  total allocation   :         23.98 KBytes
  max/ min on nodes  :          6.91          5.11

    ORTHCH:  cpu time      0.0111: real time      0.0112
     LOOP+:  cpu time      2.2622: real time      2.3030


--------------------------------------- Ionic step        5  -------------------------------------------




--------------------------------------- Iteration      5(   1)  ---------------------------------------


    POTLOK:  cpu time      0.1160: real time      0.1163
    SETDIJ:  cpu time      0.0463: real time      0.0464
     EDDAV:  cpu time      0.0860: real time      0.0862
       DOS:  cpu time      0.0002: real time      0.0002
    CHARGE:  cpu time      0.0825: real time      0.0827
    MIXING:  cpu time      0.0046: real time      0.0046
    --------------------------------------------
      LOOP:  cpu time      0.3358: real time      0.3365

 eigenvalue-minimisations  :    20
 total energy-change (2. order) : 0.1316188E-01  (-0.7570090E-01)
 number of electron       8.0000002 magnetization 
 augmentation part        0.7068548 magnetization 

 Broyden mixing:
  rms(total) = 0.28545E-01    rms(broyden)= 0.28453E-01
  rms(prec ) = 0.29982E-01
  weight for this iteration     100.00

 Free energy of the ion-electron system (eV)
  ---------------------------------------------------
  alpha Z        PSCENC =         0.02803141
  Ewald energy   TEWEN  =       130.95732291
  -Hartree energ DENC   =      -523.74609550
  -exchange      EXHF   =         0.00000000
  -V(xc)+E(xc)   XCENC  =        34.44007879
  PAW double counting   =       591.94805834     -594.00060982
  entropy T*S    EENTRO =        -0.00000000
  eigenvalues    EBANDS =      -111.29648180
  atomic energy  EATOM  =       457.22046137
  Solvation  Ediel_sol  =         0.00000000
  ---------------------------------------------------
  free energy    TOTEN  =       -14.44923431 eV

  energy without entropy =      -14.44923431  energy(sigma->0) =      -14.44923431


--------------------------------------------------------------------------------------------------------




--------------------------------------- Iteration      5(   2)  ---------------------------------------


    POTLOK:  cpu time      0.1166: real time      0.1247
    SETDIJ:  cpu time      0.0464: real time      0.0465
     EDDAV:  cpu time      0.1175: real time      0.1177
       DOS:  cpu time      0.0002: real time      0.0002
    CHARGE:  cpu time      0.0808: real time      0.0809
    MIXING:  cpu time      0.0048: real time      0.0048
    --------------------------------------------
      LOOP:  cpu time      0.3662: real time      0.3748

 eigenvalue-minimisations  :    30
 total energy-change (2. order) : 0.5656661E-03  (-0.1505217E-02)
 number of electron       8.0000002 magnetization 
 augmentation part        0.7093924 magnetization 

 Broyden mixing:
  rms(total) = 0.99059E-02    rms(broyden)= 0.98754E-02
  rms(prec ) = 0.10268E-01
  weight for this iteration     100.00

 eigenvalues of (default mixing * dielectric matrix)
  average eigenvalue GAMMA=   1.0643
  1.0643

 Free energy of the ion-electron system (eV)
  ---------------------------------------------------
  alpha Z        PSCENC =         0.02803141
  Ewald energy   TEWEN  =       130.95732291
  -Hartree energ DENC   =      -523.12410897
  -exchange      EXHF   =         0.00000000
  -V(xc)+E(xc)   XCENC  =        34.40450243
  PAW double counting   =       589.35791978     -591.40948692
  entropy T*S    EENTRO =        -0.00000000
  eigenvalues    EBANDS =      -111.88331065
  atomic energy  EATOM  =       457.22046137
  Solvation  Ediel_sol  =         0.00000000
  ---------------------------------------------------
  free energy    TOTEN  =       -14.44866864 eV

  energy without entropy =      -14.44866864  energy(sigma->0) =      -14.44866864


--------------------------------------------------------------------------------------------------------




--------------------------------------- Iteration      5(   3)  ---------------------------------------


    POTLOK:  cpu time      0.1173: real time      0.1245
    SETDIJ:  cpu time      0.0464: real time      0.0465
     EDDAV:  cpu time      0.1174: real time      0.1177
       DOS:  cpu time      0.0002: real time      0.0002
    CHARGE:  cpu time      0.0810: real time      0.0811
    MIXING:  cpu time      0.0049: real time      0.0049
    --------------------------------------------
      LOOP:  cpu time      0.3672: real time      0.3749

 eigenvalue-minimisations  :    30
 total energy-change (2. order) : 0.5288807E-04  (-0.1658831E-04)
 number of electron       8.0000002 magnetization 
 augmentation part        0.7093258 magnetization 

 Broyden mixing:
  rms(total) = 0.53273E-02    rms(broyden)= 0.53247E-02
  rms(prec ) = 0.55180E-02
  weight for this iteration     100.00

 eigenvalues of (default mixing * dielectric matrix)
  average eigenvalue GAMMA=   1.6277
  1.0014  2.2540

 Free energy of the ion-electron system (eV)
  ---------------------------------------------------
  alpha Z        PSCENC =         0.02803141
  Ewald energy   TEWEN  =       130.95732291
  -Hartree energ DENC   =      -523.07257528
  -exchange      EXHF   =         0.00000000
  -V(xc)+E(xc)   XCENC  =        34.40113923
  PAW double counting   =       588.15719048     -590.21142877
  entropy T*S    EENTRO =        -0.00000000
  eigenvalues    EBANDS =      -111.92875710
  atomic energy  EATOM  =       457.22046137
  Solvation  Ediel_sol  =         0.00000000
  ---------------------------------------------------
  free energy    TOTEN  =       -14.44861576 eV

  energy without entropy =      -14.44861576  energy(sigma->0) =      -14.44861576


--------------------------------------------------------------------------------------------------------




--------------------------------------- Iteration      5(   4)  ---------------------------------------


    POTLOK:  cpu time      0.1165: real time      0.1243
    SETDIJ:  cpu time      0.0462: real time      0.0463
     EDDAV:  cpu time      0.1177: real time      0.1180
       DOS:  cpu time      0.0003: real time      0.0002
    CHARGE:  cpu time      0.0808: real time      0.0810
    MIXING:  cpu time      0.0050: real time      0.0050
    --------------------------------------------
      LOOP:  cpu time      0.3666: real time      0.3748

 eigenvalue-minimisations  :    30
 total energy-change (2. order) :-0.6485489E-04  (-0.1694145E-04)
 number of electron       8.0000002 magnetization 
 augmentation part        0.7092670 magnetization 

 Broyden mixing:
  rms(total) = 0.72242E-03    rms(broyden)= 0.71893E-03
  rms(prec ) = 0.77892E-03
  weight for this iteration     100.00

 eigenvalues of (default mixing * dielectric matrix)
  average eigenvalue GAMMA=   1.7176
  1.0028  2.2482  1.9018

 Free energy of the ion-electron system (eV)
  ---------------------------------------------------
  alpha Z        PSCENC =         0.02803141
  Ewald energy   TEWEN  =       130.95732291
  -Hartree energ DENC   =      -523.01703158
  -exchange      EXHF   =         0.00000000
  -V(xc)+E(xc)   XCENC  =        34.39751516
  PAW double counting   =       586.69924729     -588.75628658
  entropy T*S    EENTRO =        -0.00000000
  eigenvalues    EBANDS =      -111.97794059
  atomic energy  EATOM  =       457.22046137
  Solvation  Ediel_sol  =         0.00000000
  ---------------------------------------------------
  free energy    TOTEN  =       -14.44868061 eV

  energy without entropy =      -14.44868061  energy(sigma->0) =      -14.44868061


--------------------------------------------------------------------------------------------------------




--------------------------------------- Iteration      5(   5)  ---------------------------------------


    POTLOK:  cpu time      0.1168: real time      0.1243
    SETDIJ:  cpu time      0.0465: real time      0.0465
     EDDAV:  cpu time      0.0859: real time      0.0861
       DOS:  cpu time      0.0002: real time      0.0002
    --------------------------------------------
      LOOP:  cpu time      0.2493: real time      0.2570

 eigenvalue-minimisations  :    20
 total energy-change (2. order) :-0.3601790E-05  (-0.1692241E-05)
 number of electron       8.0000002 magnetization 
 augmentation part        0.7092670 magnetization 

 Free energy of the ion-electron system (eV)
  ---------------------------------------------------
  alpha Z        PSCENC =         0.02803141
  Ewald energy   TEWEN  =       130.95732291
  -Hartree energ DENC   =      -523.01349578
  -exchange      EXHF   =         0.00000000
  -V(xc)+E(xc)   XCENC  =        34.39739007
  PAW double counting   =       586.55552573     -588.61252088
  entropy T*S    EENTRO =        -0.00000000
  eigenvalues    EBANDS =      -111.98139904
  atomic energy  EATOM  =       457.22046137
  Solvation  Ediel_sol  =         0.00000000
  ---------------------------------------------------
  free energy    TOTEN  =       -14.44868421 eV

  energy without entropy =      -14.44868421  energy(sigma->0) =      -14.44868421


--------------------------------------------------------------------------------------------------------




 average (electrostatic) potential at core
  the test charge radii are     0.7215  0.5201
  (the norm of the test charge is              1.0000)
       1 -80.6335       2 -45.2860       3 -45.2860
 
 
 
 E-fermi :  -6.3064     XC(G=0):  -0.0983     alpha+bet : -0.0163

 val. band max:       -7.2932556977   @ k =   0.0000   0.0000   0.0000
 cond. band min:      -0.8308347522   @ k =   0.0000   0.0000   0.0000
 fundamental gap:      6.4624209455
 Fermi energy:        -6.3063704519

 k-point     1 :       0.0000    0.0000    0.0000
  band No.  band energies     occupation 
      1     -25.8162      2.00000
      2     -13.8516      2.00000
      3      -9.0296      2.00000
      4      -7.2933      2.00000
      5      -0.8308      0.00000
      6       0.0154      0.00000
      7       0.2681      0.00000
      8       0.3188      0.00000
      9       0.3234      0.00000
     10       0.3372      0.00000


--------------------------------------------------------------------------------------------------------


 soft charge-density along one line, spin component           1
         0         1         2         3         4         5         6         7         8         9
 total charge-density along one line
 
 pseudopotential strength for first ion, spin component:           1
 13.794 -16.910   0.000   0.113   0.000  -0.000  -0.139  -0.000
-16.910  20.760  -0.000  -0.143  -0.000   0.000   0.178   0.000
  0.000  -0.000 -10.610   0.000  -0.000  13.153  -0.000   0.000
  0.113  -0.143   0.000 -10.481  -0.000  -0.000  12.982   0.000
  0.000  -0.000  -0.000  -0.000 -10.363   0.000   0.000  12.825
 -0.000   0.000  13.153  -0.000   0.000 -16.233   0.000  -0.000
 -0.139   0.178  -0.000  12.982   0.000   0.000 -16.007  -0.000
 -0.000   0.000   0.000   0.000  12.825  -0.000  -0.000 -15.798
 total augmentation occupancy for first ion, spin component:           1
  2.458   0.301   0.000  -0.271   0.000   0.000  -0.104   0.000
  0.301   0.070   0.000  -0.311   0.000   0.000  -0.051   0.000
  0.000   0.000   2.736   0.000   0.000   0.602   0.000   0.000
 -0.271  -0.311   0.000   2.366   0.000   0.000   0.331   0.000
  0.000   0.000   0.000   0.000   2.345   0.000   0.000   0.228
  0.000   0.000   0.602   0.000   0.000   0.132   0.000   0.000
 -0.104  -0.051   0.000   0.331   0.000   0.000   0.048   0.000
  0.000   0.000   0.000   0.000   0.228   0.000   0.000   0.022


------------------------ aborting loop because EDIFF is reached ----------------------------------------





 total charge

# of ion       s       p       d       tot
------------------------------------------
    1        1.536   3.728   0.000   5.264
    2        0.680   0.189   0.000   0.869
    3        0.680   0.189   0.000   0.869
--------------------------------------------------
tot          2.896   4.105   0.000   7.001
 
    CHARGE:  cpu time      0.0807: real time      0.0808
    FORLOC:  cpu time      0.0055: real time      0.0055
    FORNL :  cpu time      0.0272: real time      0.0273
    STRESS:  cpu time      0.0847: real time      0.0848
    FORCOR:  cpu time      0.1082: real time      0.1084
    FORHAR:  cpu time      0.0291: real time      0.0291
    MIXING:  cpu time      0.0050: real time      0.0050
    OFIELD:  cpu time      0.0001: real time      0.0001

  FORCE on cell =-STRESS in cart. coord.  units (eV):
  Direction    XX          YY          ZZ          XY          YZ          ZX
  --------------------------------------------------------------------------------------
  Alpha Z     0.02803     0.02803     0.02803
  Ewald     -21.81436   114.44902    38.32263     0.00000    -0.00000    -0.00000
  Hartree   163.51004   185.98990   173.49716    -0.00000    -0.00000    -0.00000
  E(xc)     -36.81043   -36.27485   -36.56387     0.00000     0.00000     0.00000
  Local    -252.02470  -369.10833  -302.61079    -0.00000    -0.00000    -0.00000
  n-local   -36.21819   -35.43092   -28.22269     0.00000     0.00000     0.00000
  augment     8.24801     5.66087     6.99933     0.00000    -0.00000     0.00000
  Kinetic   169.98238   133.65413   153.69534    -0.00000    -0.00000     0.00000
  Fock        0.00000     0.00000     0.00000     0.00000     0.00000     0.00000
  -------------------------------------------------------------------------------------
  Total      -5.09919    -1.03215     5.14514     0.00000     0.00000     0.00000
  in kB      -1.02123    -0.20671     1.03043     0.00000     0.00000     0.00000
  external pressure =       -0.07 kB  Pullay stress =        0.00 kB


 VOLUME and BASIS-vectors are now :
 -----------------------------------------------------------------------------
  energy-cutoff  :      400.00
  volume of cell :     8000.00
      direct lattice vectors                 reciprocal lattice vectors
    20.000000000  0.000000000  0.000000000     0.050000000  0.000000000  0.000000000
     0.000000000 20.000000000  0.000000000     0.000000000  0.050000000  0.000000000
     0.000000000  0.000000000 20.000000000     0.000000000  0.000000000  0.050000000

  length of vectors
    20.000000000 20.000000000 20.000000000     0.050000000  0.050000000  0.050000000


 FORCES acting on ions
    electron-ion (+dipol)            ewald-force                    non-local-force                 convergence-correction
 -----------------------------------------------------------------------------------------------
   0.101E-11 0.345E-12 -.626E+02   -.441E-17 0.142E-13 0.115E+03   0.404E-26 0.323E-26 -.551E+02   -.117E-12 0.187E-12 0.215E-03
   0.738E-13 -.792E+02 0.503E+02   -.263E-17 0.893E+02 -.573E+02   -.947E-28 -.932E+01 0.623E+01   -.124E-13 -.628E-03 -.497E-03
   0.755E-13 0.792E+02 0.503E+02   0.499E-17 -.893E+02 -.573E+02   0.162E-26 0.932E+01 0.623E+01   -.127E-13 0.628E-03 -.497E-03
 -----------------------------------------------------------------------------------------------
   0.116E-11 0.909E-12 0.380E+02   -.205E-17 0.000E+00 0.000E+00   0.556E-26 0.178E-14 -.426E+02   -.142E-12 0.245E-12 -.779E-03
 
 
 POSITION                                       TOTAL-FORCE (eV/Angst)
 -----------------------------------------------------------------------------------
     10.00000     10.00000     10.25035         0.000000      0.000000     -1.591528
     10.00000     10.76173      9.72575        -0.000000      0.831291      0.795764
     10.00000      9.23827      9.72575        -0.000000     -0.831291      0.795764
 -----------------------------------------------------------------------------------
    total drift:                                0.000000      0.000000     -4.685218


--------------------------------------------------------------------------------------------------------



  FREE ENERGIE OF THE ION-ELECTRON SYSTEM (eV)
  ---------------------------------------------------
  free  energy   TOTEN  =       -14.44868421 eV

  energy  without entropy=      -14.44868421  energy(sigma->0) =      -14.44868421
 
 d Force =-0.9308212E-02[-0.263E-01, 0.771E-02]  d Energy =-0.1372773E-01 0.442E-02
 d Force = 0.2000766E+01[ 0.200E+01, 0.200E+01]  d Ewald  = 0.2000990E+01-0.224E-03


--------------------------------------------------------------------------------------------------------


    POTLOK:  cpu time      0.1627: real time      0.1630


--------------------------------------------------------------------------------------------------------


 stress matrix after NEB project (eV)
     -5.09919      0.00000      0.00000
      0.00000     -1.03215      0.00000
      0.00000      0.00000      5.14514
  FORCES: max atom, RMS     1.591528    1.314221
  FORCE total and by dimension    2.276298    1.591528
  Stress total and by dimension    7.317073    5.145139


--------------------------------------------------------------------------------------------------------


     LOOP+:  cpu time      2.2365: real time      2.2800
    4ORBIT:  cpu time      0.0000: real time      0.0000



 total charge

# of ion       s       p       d       tot
------------------------------------------
    1        1.536   3.728   0.000   5.264
    2        0.680   0.189   0.000   0.869
    3        0.680   0.189   0.000   0.869
--------------------------------------------------
tot          2.896   4.105   0.000   7.001
 

 total amount of memory used by VASP MPI-rank0    64998. kBytes
=======================================================================

   base      :      30000. kBytes
   nonlr-proj:         20. kBytes
   fftplans  :      13916. kBytes
   grid      :      20478. kBytes
   one-center:          3. kBytes
   wavefun   :        581. kBytes
 
  
  
 General timing and accounting informations for this job:
 ========================================================
  
                  Total CPU time used (sec):       18.490
                            User time (sec):       16.869
                          System time (sec):        1.621
                         Elapsed time (sec):       19.312
  
                   Maximum memory used (kb):      212612.
                   Average memory used (kb):          N/A
  
                          Minor page faults:        71114
                          Major page faults:            0
                 Voluntary context switches:         1508
