PROCAR new format
# of k-points:    1         # of bands:   10         # of ions:    3

 k-point     1 :    0.00000000 0.00000000 0.00000000     weight = 1.00000000

band     1 # energy  -25.81622934 # occ.  2.00000000
 
ion      s      p      d    tot
    1  0.693  0.038  0.000  0.731
    2  0.112  0.037  0.000  0.149
    3  0.112  0.037  0.000  0.149
tot    0.917  0.111  0.000  1.029
 
band     2 # energy  -13.85161299 # occ.  2.00000000
 
ion      s      p      d    tot
    1  0.000  0.572  0.000  0.572
    2  0.187  0.026  0.000  0.214
    3  0.187  0.026  0.000  0.214
tot    0.374  0.624  0.000  0.999
 
band     3 # energy   -9.02960149 # occ.  2.00000000
 
ion      s      p      d    tot
    1  0.075  0.577  0.000  0.652
    2  0.041  0.018  0.000  0.059
    3  0.041  0.018  0.000  0.059
tot    0.156  0.613  0.000  0.770
 
band     4 # energy   -7.29325570 # occ.  2.00000000
 
ion      s      p      d    tot
    1  0.000  0.678  0.000  0.678
    2  0.000  0.013  0.000  0.013
    3  0.000  0.013  0.000  0.013
tot    0.000  0.703  0.000  0.703
 
band     5 # energy   -0.83083475 # occ.  0.00000000
 
ion      s      p      d    tot
    1  0.025  0.024  0.000  0.049
    2  0.003  0.013  0.000  0.016
    3  0.003  0.013  0.000  0.016
tot    0.031  0.050  0.000  0.081
 
band     6 # energy    0.01544502 # occ.  0.00000000
 
ion      s      p      d    tot
    1  0.001  0.001  0.000  0.002
    2  0.000  0.001  0.000  0.001
    3  0.000  0.001  0.000  0.001
tot    0.001  0.002  0.000  0.003
 
band     7 # energy    0.26810832 # occ.  0.00000000
 
ion      s      p      d    tot
    1  0.000  0.009  0.000  0.009
    2  0.000  0.002  0.000  0.002
    3  0.000  0.002  0.000  0.002
tot    0.000  0.012  0.000  0.012
 
band     8 # energy    0.31882624 # occ.  0.00000000
 
ion      s      p      d    tot
    1  0.000  0.002  0.000  0.002
    2  0.000  0.000  0.000  0.000
    3  0.000  0.000  0.000  0.000
tot    0.000  0.002  0.000  0.002
 
band     9 # energy    0.32340180 # occ.  0.00000000
 
ion      s      p      d    tot
    1  0.001  0.000  0.000  0.001
    2  0.000  0.000  0.000  0.000
    3  0.000  0.000  0.000  0.000
tot    0.001  0.000  0.000  0.001
 
band    10 # energy    0.33722804 # occ.  0.00000000
 
ion      s      p      d    tot
    1  0.000  0.000  0.000  0.000
    2  0.000  0.000  0.000  0.000
    3  0.000  0.000  0.000  0.000
tot    0.000  0.000  0.000  0.000
 
