<?xml version="1.0" encoding="ISO-8859-1"?>
<modeling>
 <generator>
  <i name="program" type="string">vasp </i>
  <i name="version" type="string">6.4.3  </i>
  <i name="subversion" type="string">19Mar24 (build Jul 09 2024 15:45:28) complex                          parallel </i>
  <i name="platform" type="string">LinuxIFC </i>
  <i name="date" type="string">2024 10 29 </i>
  <i name="time" type="string">12:23:36 </i>
 </generator>
 <incar>
  <i type="string" name="PREC">Normal</i>
  <i type="string" name="ALGO">Normal</i>
  <i type="int" name="NSIM">    10</i>
  <i type="int" name="ISPIN">     1</i>
  <i type="int" name="NELM">    30</i>
  <i type="int" name="NELMIN">     5</i>
  <i type="int" name="IBRION">     2</i>
  <i name="EDIFF">      0.00010000</i>
  <i name="EDIFFG">     -0.10000000</i>
  <i type="int" name="NSW">     5</i>
  <i name="ENCUT">    400.00000000</i>
  <i name="POTIM">      0.15000000</i>
  <i type="logical" name="LREAL"> T  </i>
  <i type="int" name="ISMEAR">     0</i>
  <i type="logical" name="KGAMMA"> T  </i>
  <i type="logical" name="LWAVE"> F  </i>
  <i type="logical" name="LCHARG"> F  </i>
  <i type="int" name="LORBIT">    10</i>
  <i type="logical" name="LASPH"> T  </i>
  <i type="string" name="GGA">PE</i>
  <i type="logical" name="LDIPOL"> F  </i>
 </incar>
 <primitive_cell>
  <structure name="primitive_cell" >
   <crystal>
    <varray name="basis" >
     <v>      20.00000000       0.00000000       0.00000000 </v>
     <v>       0.00000000      20.00000000       0.00000000 </v>
     <v>       0.00000000       0.00000000      20.00000000 </v>
    </varray>
    <i name="volume">   8000.00000000 </i>
    <varray name="rec_basis" >
     <v>       0.05000000       0.00000000       0.00000000 </v>
     <v>       0.00000000       0.05000000       0.00000000 </v>
     <v>       0.00000000       0.00000000       0.05000000 </v>
    </varray>
   </crystal>
   <varray name="positions" >
    <v>       0.50000000       0.50000000       0.51490773 </v>
    <v>       0.50000000       0.53816195       0.48509227 </v>
    <v>       0.50000000       0.46183805       0.48509227 </v>
   </varray>
  </structure>
  <varray name="primitive_index" >
   <v type="int" >        1 </v>
   <v type="int" >        2 </v>
   <v type="int" >        3 </v>
  </varray>
 </primitive_cell>
 <kpoints>
  <generation param="Monkhorst-Pack">
   <v type="int" name="divisions">       1        1        1 </v>
   <v name="usershift">      0.00000000       0.00000000       0.00000000 </v>
   <v name="genvec1">      1.00000000       0.00000000       0.00000000 </v>
   <v name="genvec2">      0.00000000       1.00000000       0.00000000 </v>
   <v name="genvec3">      0.00000000       0.00000000       1.00000000 </v>
   <v name="shift">      0.00000000       0.00000000       0.00000000 </v>
  </generation>
  <varray name="kpointlist" >
   <v>       0.00000000       0.00000000       0.00000000 </v>
  </varray>
  <varray name="weights" >
   <v>       1.00000000 </v>
  </varray>
 </kpoints>
 <parameters>
  <separator name="general" >
   <i type="string" name="SYSTEM">unknown system</i>
   <i type="logical" name="LCOMPAT"> F  </i>
  </separator>
  <separator name="electronic" >
   <i type="string" name="PREC">normal</i>
   <i name="ENMAX">    400.00000000</i>
   <i name="ENAUG">    605.39200000</i>
   <i name="EDIFF">      0.00010000</i>
   <i type="int" name="IALGO">    38</i>
   <i type="int" name="IWAVPR">    11</i>
   <i type="int" name="NBANDS">    10</i>
   <i type="int" name="NBANDSLOW">    -1</i>
   <i type="int" name="NBANDSHIGH">    -1</i>
   <i name="NELECT">      8.00000000</i>
   <i type="int" name="TURBO">     0</i>
   <i type="int" name="IRESTART">     0</i>
   <i type="int" name="NREBOOT">     0</i>
   <i type="int" name="NMIN">     0</i>
   <i name="EREF">      0.00000000</i>
   <separator name="electronic smearing" >
    <i type="int" name="ISMEAR">     0</i>
    <i name="SIGMA">      0.20000000</i>
    <i name="KSPACING">      0.50000000</i>
    <i type="logical" name="KGAMMA"> T  </i>
    <i type="logical" name="KBLOWUP"> T  </i>
   </separator>
   <separator name="electronic projectors" >
    <i type="logical" name="LREAL"> T  </i>
    <v name="ROPT">      0.00000000      0.00000000</v>
    <i type="int" name="LMAXPAW">  -100</i>
    <i type="int" name="LMAXMIX">     2</i>
    <i type="logical" name="NLSPLINE"> F  </i>
   </separator>
   <separator name="electronic startup" >
    <i type="int" name="ISTART">     0</i>
    <i type="int" name="ICHARG">     2</i>
    <i type="int" name="INIWAV">     1</i>
   </separator>
   <separator name="electronic spin" >
    <i type="int" name="ISPIN">     1</i>
    <i type="logical" name="LNONCOLLINEAR"> F  </i>
    <v name="MAGMOM">      1.00000000      1.00000000      1.00000000</v>
    <i name="NUPDOWN">     -1.00000000</i>
    <i type="logical" name="LSORBIT"> F  </i>
    <v name="SAXIS">      0.00000000      0.00000000      1.00000000</v>
    <i type="logical" name="LSPIRAL"> F  </i>
    <v name="QSPIRAL">      0.00000000      0.00000000      0.00000000</v>
    <i type="logical" name="LZEROZ"> F  </i>
   </separator>
   <separator name="electronic exchange-correlation" >
    <i type="logical" name="LASPH"> T  </i>
   </separator>
   <separator name="electronic convergence" >
    <i type="int" name="NELM">    30</i>
    <i type="int" name="NELMDL">     0</i>
    <i type="int" name="NELMIN">     5</i>
    <i name="ENINI">    400.00000000</i>
    <separator name="electronic convergence detail" >
     <i type="logical" name="LDIAG"> T  </i>
     <i type="logical" name="LSUBROT"> F  </i>
     <i name="WEIMIN">      0.00100000</i>
     <i name="EBREAK">      0.00000250</i>
     <i name="DEPER">      0.30000000</i>
     <i type="int" name="NRMM">     4</i>
     <i name="TIME">      0.40000000</i>
    </separator>
   </separator>
   <separator name="electronic mixer" >
    <i name="AMIX">      0.40000000</i>
    <i name="BMIX">      1.00000000</i>
    <i name="AMIN">      0.10000000</i>
    <i name="AMIX_MAG">      1.60000000</i>
    <i name="BMIX_MAG">      1.00000000</i>
    <separator name="electronic mixer details" >
     <i type="int" name="IMIX">     4</i>
     <i type="logical" name="MIXFIRST"> F  </i>
     <i type="int" name="MAXMIX">   -45</i>
     <i name="WC">    100.00000000</i>
     <i type="int" name="INIMIX">     1</i>
     <i type="int" name="MIXPRE">     1</i>
     <i type="int" name="MREMOVE">     5</i>
    </separator>
   </separator>
   <separator name="electronic dipolcorrection" >
    <i type="logical" name="LDIPOL"> F  </i>
    <i type="logical" name="LMONO"> F  </i>
    <i type="int" name="IDIPOL">     0</i>
    <i name="EPSILON">      1.00000000</i>
    <v name="DIPOL">   -100.00000000   -100.00000000   -100.00000000</v>
    <i name="EFIELD">      0.00000000</i>
    <i type="logical" name="LVACPOTAV"> F  </i>
   </separator>
  </separator>
  <separator name="grids" >
   <i type="int" name="NGX">    98</i>
   <i type="int" name="NGY">    98</i>
   <i type="int" name="NGZ">    98</i>
   <i type="int" name="NGXF">   196</i>
   <i type="int" name="NGYF">   196</i>
   <i type="int" name="NGZF">   196</i>
   <i type="logical" name="ADDGRID"> F  </i>
  </separator>
  <separator name="ionic" >
   <i type="int" name="NSW">     5</i>
   <i type="int" name="IBRION">     2</i>
   <i type="int" name="MDALGO">     0</i>
   <i type="int" name="ISIF">     2</i>
   <i name="PSTRESS">      0.00000000</i>
   <i name="EDIFFG">     -0.10000000</i>
   <i type="int" name="NFREE">     1</i>
   <i name="POTIM">      0.15000000</i>
   <i name="SMASS">     -3.00000000</i>
   <i name="SCALEE">      1.00000000</i>
  </separator>
  <separator name="ionic md" >
   <i name="TEBEG">      0.00010000</i>
   <i name="TEEND">      0.00010000</i>
   <i type="int" name="NBLOCK">     1</i>
   <i type="int" name="KBLOCK">     5</i>
   <i type="int" name="NPACO">   256</i>
   <i name="APACO">     10.00000000</i>
  </separator>
  <separator name="symmetry" >
   <i type="int" name="ISYM">     2</i>
   <i name="SYMPREC">      0.00001000</i>
  </separator>
  <separator name="dos" >
   <i type="int" name="LORBIT">    10</i>
   <v name="RWIGS">     -1.00000000     -1.00000000</v>
   <i type="int" name="NEDOS">   301</i>
   <i name="EMIN">     10.00000000</i>
   <i name="EMAX">    -10.00000000</i>
   <i name="EFERMI">      0.00000000</i>
  </separator>
  <separator name="writing" >
   <i type="int" name="NWRITE">     2</i>
   <i type="logical" name="LWAVE"> F  </i>
   <i type="logical" name="LDOWNSAMPLE"> F  </i>
   <i type="logical" name="LCHARG"> F  </i>
   <i type="logical" name="LPARD"> F  </i>
   <i type="logical" name="LVTOT"> F  </i>
   <i type="logical" name="LVHAR"> F  </i>
   <i type="logical" name="LELF"> F  </i>
   <i type="logical" name="LOPTICS"> F  </i>
   <v name="STM">      0.00000000      0.00000000      0.00000000      0.00000000      0.00000000      0.00000000      0.00000000</v>
  </separator>
  <separator name="performance" >
   <i type="int" name="NPAR">    10</i>
   <i type="int" name="NSIM">    10</i>
   <i type="int" name="NBLK">    -1</i>
   <i type="logical" name="LPLANE"> T  </i>
   <i type="logical" name="LSCALAPACK"> T  </i>
   <i type="logical" name="LSCAAWARE"> F  </i>
   <i type="logical" name="LSCALU"> F  </i>
   <i type="logical" name="LASYNC"> F  </i>
   <i type="logical" name="LORBITALREAL"> F  </i>
  </separator>
  <separator name="miscellaneous" >
   <i type="int" name="IDIOT">     3</i>
   <i type="int" name="PHON_NSTRUCT">    -1</i>
   <i type="logical" name="LMUSIC"> F  </i>
   <v name="POMASS">     16.00000000      1.00000000</v>
   <v name="DARWINR">      0.00000000      0.00000000</v>
   <v name="DARWINV">      1.00000000      1.00000000</v>
   <i type="logical" name="LCORR"> T  </i>
  </separator>
  <i type="logical" name="GGA_COMPAT"> T  </i>
  <i type="logical" name="LBERRY"> F  </i>
  <i type="int" name="ICORELEVEL">     0</i>
  <i type="logical" name="LDAU"> F  </i>
  <i type="int" name="I_CONSTRAINED_M">     0</i>
  <separator name="electronic exchange-correlation" >
   <i type="string" name="GGA    ">PE</i>
   <i type="string" name="XC_C">1</i>
   <i type="int" name="VOSKOWN">     0</i>
   <i type="logical" name="LHFCALC"> F  </i>
   <i type="string" name="PRECFOCK"></i>
   <i type="logical" name="LSYMGRAD"> F  </i>
   <i type="logical" name="LHFONE"> F  </i>
   <i type="logical" name="LRHFCALC"> F  </i>
   <i type="logical" name="LTHOMAS"> F  </i>
   <i type="logical" name="LMODELHF"> F  </i>
   <i type="logical" name="LFOCKACE"> F  </i>
   <i name="ENCUT4O">     -1.00000000</i>
   <i type="int" name="EXXOEP">     0</i>
   <i type="int" name="FOURORBIT">     0</i>
   <i name="AEXX">      0.00000000</i>
   <i name="HFALPHA">      0.00000000</i>
   <i name="MCALPHA">      0.00000000</i>
   <i name="ALDAX">      1.00000000</i>
   <i name="AGGAX">      1.00000000</i>
   <i name="AMGGAX">      1.00000000</i>
   <i name="ALDAC">      1.00000000</i>
   <i name="AGGAC">      1.00000000</i>
   <i name="AMGGAC">      1.00000000</i>
   <i type="int" name="NKREDX">     1</i>
   <i type="int" name="NKREDY">     1</i>
   <i type="int" name="NKREDZ">     1</i>
   <i type="logical" name="SHIFTRED"> F  </i>
   <i type="logical" name="ODDONLY"> F  </i>
   <i type="logical" name="EVENONLY"> F  </i>
   <i type="int" name="LMAXFOCK">     0</i>
   <i type="int" name="NMAXFOCKAE">     0</i>
   <i type="logical" name="LFOCKAEDFT"> F  </i>
   <i name="HFSCREEN">      0.00000000</i>
   <i name="HFSCREENC">      0.00000000</i>
   <i type="int" name="NBANDSGWLOW">     0</i>
  </separator>
  <separator name="vdW DFT" >
   <i type="logical" name="LUSE_VDW"> F  </i>
   <i type="int" name="IVDW_NL">    -1</i>
   <i type="logical" name="LSPIN_VDW"> F  </i>
   <i name="ZAB_VDW">     -0.84910000</i>
   <i name="GAMMA_VDW">      1.39626340</i>
   <i name="ALPHA_VDW">      0.00000000</i>
   <i name="PARAM1">      0.12340000</i>
   <i name="PARAM2">      1.00000000</i>
   <i name="BPARAM">      6.30000000</i>
   <i name="CPARAM">      0.00930000</i>
  </separator>
  <separator name="model GW" >
   <i type="int" name="MODEL_GW">     0</i>
   <i name="MODEL_EPS0">   1600.00000000</i>
   <i name="MODEL_ALPHA">      1.00000000</i>
  </separator>
  <separator name="linear response parameters" >
   <i type="logical" name="LEPSILON"> F  </i>
   <i type="logical" name="LRPA"> F  </i>
   <i type="logical" name="LNABLA"> F  </i>
   <i type="logical" name="LVEL"> F  </i>
   <i name="CSHIFT">      0.10000000</i>
   <i name="OMEGAMAX">     -1.00000000</i>
   <i name="DEG_THRESHOLD">      0.00200000</i>
   <i name="RTIME">     -0.10000000</i>
   <i name="WPLASMAI">      0.00000000</i>
   <v name="DFIELD">      0.00000000      0.00000000      0.00000000</v>
   <v name="WPLASMA">      0.00000000      0.00000000      0.00000000      0.00000000      0.00000000      0.00000000      0.00000000      0.00000000      0.00000000</v>
  </separator>
  <separator name="orbital magnetization" >
   <i type="logical" name="NUCIND"> F  </i>
   <v name="MAGPOS">      0.00000000      0.00000000      0.00000000</v>
   <i type="logical" name="LNICSALL"> T  </i>
   <i type="logical" name="ORBITALMAG"> F  </i>
   <i type="logical" name="LMAGBLOCH"> F  </i>
   <i type="logical" name="LCHIMAG"> F  </i>
   <i type="logical" name="LGAUGE"> T  </i>
   <i type="int" name="MAGATOM">     0</i>
   <v name="MAGDIPOL">      0.00000000      0.00000000      0.00000000</v>
   <v name="AVECCONST">      0.00000000      0.00000000      0.00000000</v>
  </separator>
  <separator name="response functions" >
   <i type="logical" name="LALL_IN_ONE"> F  </i>
   <i type="int" name="IALL_IN_ONE">    -1</i>
   <i type="int" name="NBANDS_WAVE">    -1</i>
   <i type="logical" name="LFINITE_TEMPERATURE"> F  </i>
   <i type="logical" name="LADDER"> F  </i>
   <i type="logical" name="LRPAFORCE"> F  </i>
   <i type="logical" name="LFXC"> F  </i>
   <i type="logical" name="LHARTREE"> T  </i>
   <i type="int" name="IBSE">     0</i>
   <v type="int" name="KPOINT">    -1     0     0     0</v>
   <i type="logical" name="LTCTC"> F  </i>
   <i type="logical" name="LTCTE"> F  </i>
   <i type="logical" name="LTETE"> F  </i>
   <i type="logical" name="LTRIPLET"> F  </i>
   <i type="logical" name="LFXCEPS"> F  </i>
   <i type="logical" name="LFXHEG"> F  </i>
   <i type="int" name="NATURALO">     2</i>
   <i type="logical" name="LHOLEGF"> F  </i>
   <i type="logical" name="L2ORDER"> F  </i>
   <i type="logical" name="LDMP1"> F  </i>
   <i type="logical" name="LMP2LT"> F  </i>
   <i type="logical" name="LSMP2LT"> F  </i>
   <i type="logical" name="LGWLF"> F  </i>
   <i name="ENCUTGW">     -1.60000002</i>
   <i name="ENCUTGWSOFT">     -1.60000002</i>
   <i name="ENCUTLF">     -1.00000000</i>
   <i type="logical" name="ESF_SPLINES"> F  </i>
   <i name="ESF_CONV">      0.01000000</i>
   <i type="int" name="ESF_NINTER">    15</i>
   <i type="int" name="LMAXMP2">    -1</i>
   <i name="SCISSOR">      0.00000000</i>
   <i type="int" name="NOMEGA">     0</i>
   <i type="int" name="NOMEGAR">     0</i>
   <i type="int" name="NBANDSGW">    -1</i>
   <i type="int" name="NBANDSO">    -1</i>
   <i type="int" name="NBANDSV">    -1</i>
   <i type="int" name="NELMGW">     1</i>
   <i type="int" name="NELMHF">     1</i>
   <i type="int" name="DIM">     3</i>
   <i type="int" name="IESPILON">     4</i>
   <i type="int" name="ANTIRES">     0</i>
   <i name="OMEGAMAX">    -30.00000000</i>
   <i name="OMEGAMIN">    -30.00000000</i>
   <i name="OMEGATL">   -200.00000000</i>
   <i type="int" name="OMEGAGRID">     0</i>
   <i name="CSHIFT">     -0.10000000</i>
   <i type="logical" name="LSELFENERGY"> F  </i>
   <i type="logical" name="LSPECTRAL"> F  </i>
   <i type="logical" name="LSPECTRALGW"> F  </i>
   <i type="logical" name="LSINGLES"> F  </i>
   <i type="logical" name="LFERMIGW"> F  </i>
   <i type="logical" name="ODDONLYGW"> F  </i>
   <i type="logical" name="EVENONLYGW"> F  </i>
   <i type="int" name="NKREDLFX">     1</i>
   <i type="int" name="NKREDLFY">     1</i>
   <i type="int" name="NKREDLFZ">     1</i>
   <i type="int" name="MAXMEM">  2800</i>
   <i type="int" name="TELESCOPE">     0</i>
   <i type="int" name="NTAUPAR">    -1</i>
   <i type="int" name="NOMEGAPAR">    -1</i>
   <i name="DAMP_NEWTON">      0.80000001</i>
   <i name="LAMBDA">      1.00000000</i>
  </separator>
  <separator name="External order field" >
   <i name="OFIELD_KAPPA">      0.00000000</i>
   <v name="OFIELD_K">      0.00000000      0.00000000      0.00000000</v>
   <i name="OFIELD_Q6_NEAR">      0.00000000</i>
   <i name="OFIELD_Q6_FAR">      0.00000000</i>
   <i name="OFIELD_A">      0.00000000</i>
  </separator>
  <separator name="optional k-points parameters" >
   <i type="int" name="KPOINTS_OPT_MODE">     1</i>
   <i type="logical" name="LKPOINTS_OPT"> F  </i>
  </separator>
 </parameters>
 <atominfo>
  <atoms>       3 </atoms>
  <types>       2 </types>
  <array name="atoms" >
   <dimension dim="1">ion</dimension>
   <field type="string">element</field>
   <field type="int">atomtype</field>
   <set>
    <rc><c>O </c><c>   1</c></rc>
    <rc><c>H </c><c>   2</c></rc>
    <rc><c>H </c><c>   2</c></rc>
   </set>
  </array>
  <array name="atomtypes" >
   <dimension dim="1">type</dimension>
   <field type="int">atomspertype</field>
   <field type="string">element</field>
   <field>mass</field>
   <field>valence</field>
   <field type="string">pseudopotential</field>
   <set>
    <rc><c>   1</c><c>O </c><c>     16.00000000</c><c>      6.00000000</c><c>  PAW_PBE O 08Apr2002                   </c></rc>
    <rc><c>   2</c><c>H </c><c>      1.00000000</c><c>      1.00000000</c><c>  PAW_PBE H 15Jun2001                   </c></rc>
   </set>
  </array>
 </atominfo>
 <structure name="initialpos" >
  <crystal>
   <varray name="basis" >
    <v>      20.00000000       0.00000000       0.00000000 </v>
    <v>       0.00000000      20.00000000       0.00000000 </v>
    <v>       0.00000000       0.00000000      20.00000000 </v>
   </varray>
   <i name="volume">   8000.00000000 </i>
   <varray name="rec_basis" >
    <v>       0.05000000       0.00000000       0.00000000 </v>
    <v>       0.00000000       0.05000000       0.00000000 </v>
    <v>       0.00000000       0.00000000       0.05000000 </v>
   </varray>
  </crystal>
  <varray name="positions" >
   <v>       0.50000000       0.50000000       0.51490773 </v>
   <v>       0.50000000       0.53816195       0.48509227 </v>
   <v>       0.50000000       0.46183805       0.48509227 </v>
  </varray>
 </structure>
 <calculation>
  <scstep>
   <time name="dav">    0.12    0.12</time>
   <time name="total">    0.30    0.30</time>
   <energy>
    <i name="alphaZ">      0.02803141 </i>
    <i name="ewald">    122.51986850 </i>
    <i name="hartreedc">   -481.04347262 </i>
    <i name="XCdc">     32.19540901 </i>
    <i name="pawpsdc">    350.81753176 </i>
    <i name="pawaedc">   -352.63395800 </i>
    <i name="eentropy">     -0.24613882 </i>
    <i name="bandstr">    -54.30063955 </i>
    <i name="atom">    457.22046137 </i>
    <i name="e_fr_energy">     74.55709306 </i>
    <i name="e_wo_entrp">     74.80323188 </i>
    <i name="e_0_energy">     74.68016247 </i>
   </energy>
  </scstep>
  <scstep>
   <time name="dav">    0.16    0.16</time>
   <time name="total">    0.16    0.16</time>
   <energy>
    <i name="e_fr_energy">      7.15270864 </i>
    <i name="e_wo_entrp">      7.15270864 </i>
    <i name="e_0_energy">      7.15270864 </i>
   </energy>
  </scstep>
  <scstep>
   <time name="dav">    0.09    0.09</time>
   <time name="total">    0.09    0.09</time>
   <energy>
    <i name="e_fr_energy">    -15.26849778 </i>
    <i name="e_wo_entrp">    -15.26849778 </i>
    <i name="e_0_energy">    -15.26849778 </i>
   </energy>
  </scstep>
  <scstep>
   <time name="dav">    0.09    0.10</time>
   <time name="total">    0.09    0.10</time>
   <energy>
    <i name="e_fr_energy">    -16.39553311 </i>
    <i name="e_wo_entrp">    -16.39553311 </i>
    <i name="e_0_energy">    -16.39553311 </i>
   </energy>
  </scstep>
  <scstep>
   <time name="dav">    0.16    0.17</time>
   <time name="total">    0.25    0.26</time>
   <energy>
    <i name="e_fr_energy">    -16.40452094 </i>
    <i name="e_wo_entrp">    -16.40452094 </i>
    <i name="e_0_energy">    -16.40452094 </i>
   </energy>
  </scstep>
  <scstep>
   <time name="dav">    0.09    0.09</time>
   <time name="total">    0.34    0.35</time>
   <energy>
    <i name="e_fr_energy">    -14.52812402 </i>
    <i name="e_wo_entrp">    -14.52812402 </i>
    <i name="e_0_energy">    -14.52812402 </i>
   </energy>
  </scstep>
  <scstep>
   <time name="dav">    0.12    0.12</time>
   <time name="total">    0.37    0.38</time>
   <energy>
    <i name="e_fr_energy">    -14.42935592 </i>
    <i name="e_wo_entrp">    -14.42935592 </i>
    <i name="e_0_energy">    -14.42935592 </i>
   </energy>
  </scstep>
  <scstep>
   <time name="dav">    0.12    0.12</time>
   <time name="total">    0.37    0.38</time>
   <energy>
    <i name="e_fr_energy">    -14.35469692 </i>
    <i name="e_wo_entrp">    -14.35469692 </i>
    <i name="e_0_energy">    -14.35469692 </i>
   </energy>
  </scstep>
  <scstep>
   <time name="dav">    0.15    0.15</time>
   <time name="total">    0.40    0.41</time>
   <energy>
    <i name="e_fr_energy">    -14.35586215 </i>
    <i name="e_wo_entrp">    -14.35586215 </i>
    <i name="e_0_energy">    -14.35586215 </i>
   </energy>
  </scstep>
  <scstep>
   <time name="dav">    0.09    0.09</time>
   <time name="total">    0.34    0.34</time>
   <energy>
    <i name="e_fr_energy">    -14.36141858 </i>
    <i name="e_wo_entrp">    -14.36141858 </i>
    <i name="e_0_energy">    -14.36141858 </i>
   </energy>
  </scstep>
  <scstep>
   <time name="dav">    0.12    0.12</time>
   <time name="total">    0.37    0.38</time>
   <energy>
    <i name="e_fr_energy">    -14.36742944 </i>
    <i name="e_wo_entrp">    -14.36742944 </i>
    <i name="e_0_energy">    -14.36742944 </i>
   </energy>
  </scstep>
  <scstep>
   <time name="dav">    0.13    0.13</time>
   <time name="total">    0.38    0.39</time>
   <energy>
    <i name="e_fr_energy">    -14.37033870 </i>
    <i name="e_wo_entrp">    -14.37033870 </i>
    <i name="e_0_energy">    -14.37033870 </i>
   </energy>
  </scstep>
  <scstep>
   <time name="dav">    0.09    0.09</time>
   <time name="total">    0.34    0.35</time>
   <energy>
    <i name="e_fr_energy">    -14.37278770 </i>
    <i name="e_wo_entrp">    -14.37278770 </i>
    <i name="e_0_energy">    -14.37278770 </i>
   </energy>
  </scstep>
  <scstep>
   <time name="dav">    0.15    0.15</time>
   <time name="total">    0.40    0.41</time>
   <energy>
    <i name="e_fr_energy">    -14.37329530 </i>
    <i name="e_wo_entrp">    -14.37329530 </i>
    <i name="e_0_energy">    -14.37329530 </i>
   </energy>
  </scstep>
  <scstep>
   <time name="dav">    0.09    0.09</time>
   <time name="total">    0.34    0.35</time>
   <energy>
    <i name="e_fr_energy">    -14.37395129 </i>
    <i name="e_wo_entrp">    -14.37395129 </i>
    <i name="e_0_energy">    -14.37395129 </i>
   </energy>
  </scstep>
  <scstep>
   <time name="dav">    0.15    0.15</time>
   <time name="total">    0.40    0.41</time>
   <energy>
    <i name="e_fr_energy">    -14.37406840 </i>
    <i name="e_wo_entrp">    -14.37406840 </i>
    <i name="e_0_energy">    -14.37406840 </i>
   </energy>
  </scstep>
  <scstep>
   <time name="dav">    0.12    0.12</time>
   <time name="total">    0.37    0.38</time>
   <energy>
    <i name="e_fr_energy">    -14.37419390 </i>
    <i name="e_wo_entrp">    -14.37419390 </i>
    <i name="e_0_energy">    -14.37419390 </i>
   </energy>
  </scstep>
  <scstep>
   <time name="dav">    0.15    0.15</time>
   <time name="total">    0.31    0.32</time>
   <energy>
    <i name="alphaZ">      0.02803141 </i>
    <i name="ewald">    122.51986850 </i>
    <i name="hartreedc">   -516.26584315 </i>
    <i name="XCdc">     34.05490213 </i>
    <i name="pawpsdc">    571.49045578 </i>
    <i name="pawaedc">   -573.50533384 </i>
    <i name="eentropy">     -0.00000000 </i>
    <i name="bandstr">   -109.91675412 </i>
    <i name="atom">    457.22046137 </i>
    <i name="e_fr_energy">    -14.37421193 </i>
    <i name="e_wo_entrp">    -14.37421193 </i>
    <i name="e_0_energy">    -14.37421193 </i>
   </energy>
  </scstep>
  <structure>
   <crystal>
    <varray name="basis" >
     <v>      20.00000000       0.00000000       0.00000000 </v>
     <v>       0.00000000      20.00000000       0.00000000 </v>
     <v>       0.00000000       0.00000000      20.00000000 </v>
    </varray>
    <i name="volume">   8000.00000000 </i>
    <varray name="rec_basis" >
     <v>       0.05000000       0.00000000       0.00000000 </v>
     <v>       0.00000000       0.05000000       0.00000000 </v>
     <v>       0.00000000       0.00000000       0.05000000 </v>
    </varray>
   </crystal>
   <varray name="positions" >
    <v>       0.50000000       0.50000000       0.51490773 </v>
    <v>       0.50000000       0.53816195       0.48509227 </v>
    <v>       0.50000000       0.46183805       0.48509227 </v>
   </varray>
  </structure>
  <varray name="forces" >
   <v>      -0.00000000       0.00000000      -4.44270465 </v>
   <v>       0.00000000      -0.14023377       2.22135233 </v>
   <v>       0.00000000       0.14023377       2.22135233 </v>
  </varray>
  <varray name="stress" >
   <v>      -0.47605730       0.00000000       0.00000000 </v>
   <v>       0.00000000      -0.16879873       0.00000000 </v>
   <v>       0.00000000       0.00000000      -0.27223477 </v>
  </varray>
  <energy>
   <i name="e_fr_energy">    -14.37421193 </i>
   <i name="e_wo_entrp">    -14.37421193 </i>
   <i name="e_0_energy">    -14.37421193 </i>
  </energy>
  <time name="totalsc">    6.18    6.34</time>
 </calculation>
 <calculation>
  <scstep>
   <time name="dav">    0.09    0.09</time>
   <time name="total">    0.34    0.34</time>
   <energy>
    <i name="alphaZ">      0.02803141 </i>
    <i name="ewald">    133.88417093 </i>
    <i name="hartreedc">   -521.03323155 </i>
    <i name="XCdc">     34.26920358 </i>
    <i name="pawpsdc">    571.47969310 </i>
    <i name="pawaedc">   -573.49454431 </i>
    <i name="eentropy">     -0.00000000 </i>
    <i name="bandstr">   -116.82567466 </i>
    <i name="atom">    457.22046137 </i>
    <i name="e_fr_energy">    -14.47189012 </i>
    <i name="e_wo_entrp">    -14.47189012 </i>
    <i name="e_0_energy">    -14.47189012 </i>
   </energy>
  </scstep>
  <scstep>
   <time name="dav">    0.12    0.12</time>
   <time name="total">    0.37    0.37</time>
   <energy>
    <i name="e_fr_energy">    -14.45936002 </i>
    <i name="e_wo_entrp">    -14.45936002 </i>
    <i name="e_0_energy">    -14.45936002 </i>
   </energy>
  </scstep>
  <scstep>
   <time name="dav">    0.09    0.09</time>
   <time name="total">    0.33    0.34</time>
   <energy>
    <i name="e_fr_energy">    -14.45596537 </i>
    <i name="e_wo_entrp">    -14.45596537 </i>
    <i name="e_0_energy">    -14.45596537 </i>
   </energy>
  </scstep>
  <scstep>
   <time name="dav">    0.12    0.12</time>
   <time name="total">    0.38    0.39</time>
   <energy>
    <i name="e_fr_energy">    -14.45628321 </i>
    <i name="e_wo_entrp">    -14.45628321 </i>
    <i name="e_0_energy">    -14.45628321 </i>
   </energy>
  </scstep>
  <scstep>
   <time name="dav">    0.15    0.15</time>
   <time name="total">    0.42    0.42</time>
   <energy>
    <i name="e_fr_energy">    -14.45658627 </i>
    <i name="e_wo_entrp">    -14.45658627 </i>
    <i name="e_0_energy">    -14.45658627 </i>
   </energy>
  </scstep>
  <scstep>
   <time name="dav">    0.12    0.12</time>
   <time name="total">    0.37    0.38</time>
   <energy>
    <i name="e_fr_energy">    -14.45683905 </i>
    <i name="e_wo_entrp">    -14.45683905 </i>
    <i name="e_0_energy">    -14.45683905 </i>
   </energy>
  </scstep>
  <scstep>
   <time name="dav">    0.15    0.15</time>
   <time name="total">    0.40    0.41</time>
   <energy>
    <i name="e_fr_energy">    -14.45699054 </i>
    <i name="e_wo_entrp">    -14.45699054 </i>
    <i name="e_0_energy">    -14.45699054 </i>
   </energy>
  </scstep>
  <scstep>
   <time name="dav">    0.12    0.12</time>
   <time name="total">    0.37    0.38</time>
   <energy>
    <i name="e_fr_energy">    -14.45723964 </i>
    <i name="e_wo_entrp">    -14.45723964 </i>
    <i name="e_0_energy">    -14.45723964 </i>
   </energy>
  </scstep>
  <scstep>
   <time name="dav">    0.12    0.12</time>
   <time name="total">    0.37    0.38</time>
   <energy>
    <i name="e_fr_energy">    -14.45736174 </i>
    <i name="e_wo_entrp">    -14.45736174 </i>
    <i name="e_0_energy">    -14.45736174 </i>
   </energy>
  </scstep>
  <scstep>
   <time name="dav">    0.09    0.09</time>
   <time name="total">    0.25    0.26</time>
   <energy>
    <i name="alphaZ">      0.02803141 </i>
    <i name="ewald">    133.88417093 </i>
    <i name="hartreedc">   -525.31870384 </i>
    <i name="XCdc">     34.51561731 </i>
    <i name="pawpsdc">    596.84097455 </i>
    <i name="pawaedc">   -598.89177566 </i>
    <i name="eentropy">     -0.00000000 </i>
    <i name="bandstr">   -112.73620369 </i>
    <i name="atom">    457.22046137 </i>
    <i name="e_fr_energy">    -14.45742762 </i>
    <i name="e_wo_entrp">    -14.45742762 </i>
    <i name="e_0_energy">    -14.45742762 </i>
   </energy>
  </scstep>
  <structure>
   <crystal>
    <varray name="basis" >
     <v>      20.00000000       0.00000000       0.00000000 </v>
     <v>       0.00000000      20.00000000       0.00000000 </v>
     <v>       0.00000000       0.00000000      20.00000000 </v>
    </varray>
    <i name="volume">   8000.00000000 </i>
    <varray name="rec_basis" >
     <v>       0.05000000       0.00000000       0.00000000 </v>
     <v>       0.00000000       0.05000000       0.00000000 </v>
     <v>       0.00000000       0.00000000       0.05000000 </v>
    </varray>
   </crystal>
   <varray name="positions" >
    <v>       0.50000000       0.50000000       0.51169281 </v>
    <v>       0.50000000       0.53806047       0.48669973 </v>
    <v>       0.50000000       0.46193953       0.48669973 </v>
   </varray>
  </structure>
  <varray name="forces" >
   <v>       0.00000000       0.00000000       0.43171981 </v>
   <v>       0.00000000       1.48620690      -0.21585991 </v>
   <v>      -0.00000000      -1.48620690      -0.21585991 </v>
  </varray>
  <varray name="stress" >
   <v>      -1.16152574       0.00000000       0.00000000 </v>
   <v>       0.00000000      -0.13003186       0.00000000 </v>
   <v>       0.00000000       0.00000000      -0.50902523 </v>
  </varray>
  <energy>
   <i name="e_fr_energy">    -14.45742762 </i>
   <i name="e_wo_entrp">    -14.45742762 </i>
   <i name="e_0_energy">    -14.45742762 </i>
  </energy>
  <time name="totalsc">    4.18    4.26</time>
 </calculation>
 <calculation>
  <scstep>
   <time name="dav">    0.09    0.09</time>
   <time name="total">    0.34    0.34</time>
   <energy>
    <i name="alphaZ">      0.02803141 </i>
    <i name="ewald">    128.95788232 </i>
    <i name="hartreedc">   -523.23559557 </i>
    <i name="XCdc">     34.42074592 </i>
    <i name="pawpsdc">    596.82720484 </i>
    <i name="pawaedc">   -598.87779045 </i>
    <i name="eentropy">     -0.00000000 </i>
    <i name="bandstr">   -109.75537819 </i>
    <i name="atom">    457.22046137 </i>
    <i name="e_fr_energy">    -14.41443835 </i>
    <i name="e_wo_entrp">    -14.41443835 </i>
    <i name="e_0_energy">    -14.41443835 </i>
   </energy>
  </scstep>
  <scstep>
   <time name="dav">    0.12    0.12</time>
   <time name="total">    0.37    0.37</time>
   <energy>
    <i name="e_fr_energy">    -14.41107593 </i>
    <i name="e_wo_entrp">    -14.41107593 </i>
    <i name="e_0_energy">    -14.41107593 </i>
   </energy>
  </scstep>
  <scstep>
   <time name="dav">    0.09    0.09</time>
   <time name="total">    0.33    0.34</time>
   <energy>
    <i name="e_fr_energy">    -14.41043992 </i>
    <i name="e_wo_entrp">    -14.41043992 </i>
    <i name="e_0_energy">    -14.41043992 </i>
   </energy>
  </scstep>
  <scstep>
   <time name="dav">    0.12    0.12</time>
   <time name="total">    0.37    0.38</time>
   <energy>
    <i name="e_fr_energy">    -14.41073860 </i>
    <i name="e_wo_entrp">    -14.41073860 </i>
    <i name="e_0_energy">    -14.41073860 </i>
   </energy>
  </scstep>
  <scstep>
   <time name="dav">    0.12    0.12</time>
   <time name="total">    0.28    0.29</time>
   <energy>
    <i name="alphaZ">      0.02803141 </i>
    <i name="ewald">    128.95788232 </i>
    <i name="hartreedc">   -521.44431671 </i>
    <i name="XCdc">     34.31694626 </i>
    <i name="pawpsdc">    586.37327055 </i>
    <i name="pawaedc">   -588.42898925 </i>
    <i name="eentropy">     -0.00000000 </i>
    <i name="bandstr">   -111.43410474 </i>
    <i name="atom">    457.22046137 </i>
    <i name="e_fr_energy">    -14.41081878 </i>
    <i name="e_wo_entrp">    -14.41081878 </i>
    <i name="e_0_energy">    -14.41081878 </i>
   </energy>
  </scstep>
  <structure>
   <crystal>
    <varray name="basis" >
     <v>      20.00000000       0.00000000       0.00000000 </v>
     <v>       0.00000000      20.00000000       0.00000000 </v>
     <v>       0.00000000       0.00000000      20.00000000 </v>
    </varray>
    <i name="volume">   8000.00000000 </i>
    <varray name="rec_basis" >
     <v>       0.05000000       0.00000000       0.00000000 </v>
     <v>       0.00000000       0.05000000       0.00000000 </v>
     <v>       0.00000000       0.00000000       0.05000000 </v>
    </varray>
   </crystal>
   <varray name="positions" >
    <v>       0.50000000       0.50000000       0.51308131 </v>
    <v>       0.50000000       0.53810430       0.48600548 </v>
    <v>       0.50000000       0.46189570       0.48600548 </v>
   </varray>
  </structure>
  <varray name="forces" >
   <v>      -0.00000000       0.00000000      -2.15900940 </v>
   <v>       0.00000000       0.54770965       1.07950470 </v>
   <v>       0.00000000      -0.54770965       1.07950470 </v>
  </varray>
  <varray name="stress" >
   <v>      -0.82281439       0.00000000       0.00000000 </v>
   <v>       0.00000000      -0.06520468       0.00000000 </v>
   <v>       0.00000000       0.00000000       0.19078121 </v>
  </varray>
  <energy>
   <i name="e_fr_energy">    -14.41081878 </i>
   <i name="e_wo_entrp">    -14.41081878 </i>
   <i name="e_0_energy">    -14.41081878 </i>
  </energy>
  <time name="totalsc">    2.27    2.32</time>
 </calculation>
 <calculation>
  <scstep>
   <time name="dav">    0.09    0.09</time>
   <time name="total">    0.34    0.34</time>
   <energy>
    <i name="alphaZ">      0.02803141 </i>
    <i name="ewald">    132.95831281 </i>
    <i name="hartreedc">   -523.10484061 </i>
    <i name="XCdc">     34.39228601 </i>
    <i name="pawpsdc">    586.36728901 </i>
    <i name="pawaedc">   -588.42399043 </i>
    <i name="eentropy">     -0.00000000 </i>
    <i name="bandstr">   -113.90217057 </i>
    <i name="atom">    457.22046137 </i>
    <i name="e_fr_energy">    -14.46462100 </i>
    <i name="e_wo_entrp">    -14.46462100 </i>
    <i name="e_0_energy">    -14.46462100 </i>
   </energy>
  </scstep>
  <scstep>
   <time name="dav">    0.12    0.12</time>
   <time name="total">    0.37    0.37</time>
   <energy>
    <i name="e_fr_energy">    -14.46243777 </i>
    <i name="e_wo_entrp">    -14.46243777 </i>
    <i name="e_0_energy">    -14.46243777 </i>
   </energy>
  </scstep>
  <scstep>
   <time name="dav">    0.09    0.09</time>
   <time name="total">    0.33    0.34</time>
   <energy>
    <i name="e_fr_energy">    -14.46220887 </i>
    <i name="e_wo_entrp">    -14.46220887 </i>
    <i name="e_0_energy">    -14.46220887 </i>
   </energy>
  </scstep>
  <scstep>
   <time name="dav">    0.09    0.09</time>
   <time name="total">    0.35    0.35</time>
   <energy>
    <i name="e_fr_energy">    -14.46239619 </i>
    <i name="e_wo_entrp">    -14.46239619 </i>
    <i name="e_0_energy">    -14.46239619 </i>
   </energy>
  </scstep>
  <scstep>
   <time name="dav">    0.12    0.12</time>
   <time name="total">    0.29    0.29</time>
   <energy>
    <i name="alphaZ">      0.02803141 </i>
    <i name="ewald">    132.95831281 </i>
    <i name="hartreedc">   -524.56655805 </i>
    <i name="XCdc">     34.47739973 </i>
    <i name="pawpsdc">    591.90524870 </i>
    <i name="pawaedc">   -593.95822058 </i>
    <i name="eentropy">     -0.00000000 </i>
    <i name="bandstr">   -112.52708733 </i>
    <i name="atom">    457.22046137 </i>
    <i name="e_fr_energy">    -14.46241194 </i>
    <i name="e_wo_entrp">    -14.46241194 </i>
    <i name="e_0_energy">    -14.46241194 </i>
   </energy>
  </scstep>
  <structure>
   <crystal>
    <varray name="basis" >
     <v>      20.00000000       0.00000000       0.00000000 </v>
     <v>       0.00000000      20.00000000       0.00000000 </v>
     <v>       0.00000000       0.00000000      20.00000000 </v>
    </varray>
    <i name="volume">   8000.00000000 </i>
    <varray name="rec_basis" >
     <v>       0.05000000       0.00000000       0.00000000 </v>
     <v>       0.00000000       0.05000000       0.00000000 </v>
     <v>       0.00000000       0.00000000       0.05000000 </v>
    </varray>
   </crystal>
   <varray name="positions" >
    <v>       0.50000000       0.50000000       0.51195373 </v>
    <v>       0.50000000       0.53806871       0.48656927 </v>
    <v>       0.50000000       0.46193129       0.48656927 </v>
   </varray>
  </structure>
  <varray name="forces" >
   <v>      -0.00000000      -0.00000000       0.40106590 </v>
   <v>       0.00000000       1.30210665      -0.20053295 </v>
   <v>       0.00000000      -1.30210665      -0.20053295 </v>
  </varray>
  <varray name="stress" >
   <v>      -1.10394182       0.00000000       0.00000000 </v>
   <v>       0.00000000      -0.13522641       0.00000000 </v>
   <v>       0.00000000       0.00000000      -0.24855151 </v>
  </varray>
  <energy>
   <i name="e_fr_energy">    -14.46241194 </i>
   <i name="e_wo_entrp">    -14.46241194 </i>
   <i name="e_0_energy">    -14.46241194 </i>
  </energy>
  <time name="totalsc">    2.26    2.30</time>
 </calculation>
 <calculation>
  <scstep>
   <time name="dav">    0.09    0.09</time>
   <time name="total">    0.34    0.34</time>
   <energy>
    <i name="alphaZ">      0.02803141 </i>
    <i name="ewald">    130.95732291 </i>
    <i name="hartreedc">   -523.74609550 </i>
    <i name="XCdc">     34.44007879 </i>
    <i name="pawpsdc">    591.94805834 </i>
    <i name="pawaedc">   -594.00060982 </i>
    <i name="eentropy">     -0.00000000 </i>
    <i name="bandstr">   -111.29648180 </i>
    <i name="atom">    457.22046137 </i>
    <i name="e_fr_energy">    -14.44923431 </i>
    <i name="e_wo_entrp">    -14.44923431 </i>
    <i name="e_0_energy">    -14.44923431 </i>
   </energy>
  </scstep>
  <scstep>
   <time name="dav">    0.12    0.12</time>
   <time name="total">    0.37    0.37</time>
   <energy>
    <i name="e_fr_energy">    -14.44866864 </i>
    <i name="e_wo_entrp">    -14.44866864 </i>
    <i name="e_0_energy">    -14.44866864 </i>
   </energy>
  </scstep>
  <scstep>
   <time name="dav">    0.12    0.12</time>
   <time name="total">    0.37    0.37</time>
   <energy>
    <i name="e_fr_energy">    -14.44861576 </i>
    <i name="e_wo_entrp">    -14.44861576 </i>
    <i name="e_0_energy">    -14.44861576 </i>
   </energy>
  </scstep>
  <scstep>
   <time name="dav">    0.12    0.12</time>
   <time name="total">    0.37    0.37</time>
   <energy>
    <i name="e_fr_energy">    -14.44868061 </i>
    <i name="e_wo_entrp">    -14.44868061 </i>
    <i name="e_0_energy">    -14.44868061 </i>
   </energy>
  </scstep>
  <scstep>
   <time name="dav">    0.09    0.09</time>
   <time name="total">    0.25    0.26</time>
   <energy>
    <i name="alphaZ">      0.02803141 </i>
    <i name="ewald">    130.95732291 </i>
    <i name="hartreedc">   -523.01349578 </i>
    <i name="XCdc">     34.39739007 </i>
    <i name="pawpsdc">    586.55552573 </i>
    <i name="pawaedc">   -588.61252088 </i>
    <i name="eentropy">     -0.00000000 </i>
    <i name="bandstr">   -111.98139904 </i>
    <i name="atom">    457.22046137 </i>
    <i name="e_fr_energy">    -14.44868421 </i>
    <i name="e_wo_entrp">    -14.44868421 </i>
    <i name="e_0_energy">    -14.44868421 </i>
   </energy>
  </scstep>
  <structure>
   <crystal>
    <varray name="basis" >
     <v>      20.00000000       0.00000000       0.00000000 </v>
     <v>       0.00000000      20.00000000       0.00000000 </v>
     <v>       0.00000000       0.00000000      20.00000000 </v>
    </varray>
    <i name="volume">   8000.00000000 </i>
    <varray name="rec_basis" >
     <v>       0.05000000       0.00000000       0.00000000 </v>
     <v>       0.00000000       0.05000000       0.00000000 </v>
     <v>       0.00000000       0.00000000       0.05000000 </v>
    </varray>
   </crystal>
   <varray name="positions" >
    <v>       0.50000000       0.50000000       0.51251752 </v>
    <v>       0.50000000       0.53808650       0.48628738 </v>
    <v>       0.50000000       0.46191350       0.48628738 </v>
   </varray>
  </structure>
  <varray name="forces" >
   <v>       0.00000000       0.00000000      -1.59152763 </v>
   <v>      -0.00000000       0.83129127       0.79576382 </v>
   <v>      -0.00000000      -0.83129127       0.79576382 </v>
  </varray>
  <varray name="stress" >
   <v>      -1.02122644       0.00000000       0.00000000 </v>
   <v>       0.00000000      -0.20671052       0.00000000 </v>
   <v>       0.00000000       0.00000000       1.03042815 </v>
  </varray>
  <energy>
   <i name="e_fr_energy">    -14.44868421 </i>
   <i name="e_wo_entrp">    -14.44868421 </i>
   <i name="e_0_energy">    -14.44868421 </i>
  </energy>
  <time name="totalsc">    2.24    2.28</time>
  <eigenvalues>
   <array>
    <dimension dim="1">band</dimension>
    <dimension dim="2">kpoint</dimension>
    <dimension dim="3">spin</dimension>
    <field>eigene</field>
    <field>occ</field>
    <set>
     <set comment="spin 1">
      <set comment="kpoint 1">
       <r>  -25.8162    1.0000 </r>
       <r>  -13.8516    1.0000 </r>
       <r>   -9.0296    1.0000 </r>
       <r>   -7.2933    1.0000 </r>
       <r>   -0.8308    0.0000 </r>
       <r>    0.0154    0.0000 </r>
       <r>    0.2681    0.0000 </r>
       <r>    0.3188    0.0000 </r>
       <r>    0.3234    0.0000 </r>
       <r>    0.3372    0.0000 </r>
      </set>
     </set>
    </set>
   </array>
  </eigenvalues>
  <separator name="orbital magnetization" >
   <v name="MAGDIPOLOUT">      0.00000000      0.00000000      0.00000000</v>
  </separator>
  <dos>
   <i name="efermi">     -6.30637045 </i>
   <total>
    <array>
     <dimension dim="1">gridpoints</dimension>
     <dimension dim="2">spin</dimension>
     <field>energy</field>
     <field>total</field>
     <field>integrated</field>
     <set>
      <set comment="spin 1">
       <r>   -27.8162     0.0000     0.0000 </r>
       <r>   -27.7157     0.0000     0.0000 </r>
       <r>   -27.6152     0.0000     0.0000 </r>
       <r>   -27.5147     0.0000     0.0000 </r>
       <r>   -27.4142     0.0000     0.0000 </r>
       <r>   -27.3137     0.0000     0.0000 </r>
       <r>   -27.2132     0.0000     0.0000 </r>
       <r>   -27.1126     0.0000     0.0000 </r>
       <r>   -27.0121     0.0000     0.0000 </r>
       <r>   -26.9116     0.0000     0.0000 </r>
       <r>   -26.8111     0.0000     0.0000 </r>
       <r>   -26.7106     0.0000     0.0000 </r>
       <r>   -26.6101     0.0000     0.0000 </r>
       <r>   -26.5096     0.0000     0.0000 </r>
       <r>   -26.4091     0.0003     0.0000 </r>
       <r>   -26.3086     0.0047     0.0005 </r>
       <r>   -26.2080     0.0507     0.0056 </r>
       <r>   -26.1075     0.3365     0.0394 </r>
       <r>   -26.0070     1.3719     0.1773 </r>
       <r>   -25.9065     3.4416     0.5232 </r>
       <r>   -25.8060     5.3172     1.0577 </r>
       <r>   -25.7055     5.0615     1.5664 </r>
       <r>   -25.6050     2.9684     1.8648 </r>
       <r>   -25.5045     1.0719     1.9725 </r>
       <r>   -25.4040     0.2381     1.9964 </r>
       <r>   -25.3034     0.0325     1.9997 </r>
       <r>   -25.2029     0.0027     2.0000 </r>
       <r>   -25.1024     0.0001     2.0000 </r>
       <r>   -25.0019     0.0000     2.0000 </r>
       <r>   -24.9014     0.0000     2.0000 </r>
       <r>   -24.8009     0.0000     2.0000 </r>
       <r>   -24.7004     0.0000     2.0000 </r>
       <r>   -24.5999     0.0000     2.0000 </r>
       <r>   -24.4993     0.0000     2.0000 </r>
       <r>   -24.3988     0.0000     2.0000 </r>
       <r>   -24.2983     0.0000     2.0000 </r>
       <r>   -24.1978     0.0000     2.0000 </r>
       <r>   -24.0973     0.0000     2.0000 </r>
       <r>   -23.9968     0.0000     2.0000 </r>
       <r>   -23.8963     0.0000     2.0000 </r>
       <r>   -23.7958     0.0000     2.0000 </r>
       <r>   -23.6953     0.0000     2.0000 </r>
       <r>   -23.5947     0.0000     2.0000 </r>
       <r>   -23.4942     0.0000     2.0000 </r>
       <r>   -23.3937     0.0000     2.0000 </r>
       <r>   -23.2932     0.0000     2.0000 </r>
       <r>   -23.1927     0.0000     2.0000 </r>
       <r>   -23.0922     0.0000     2.0000 </r>
       <r>   -22.9917     0.0000     2.0000 </r>
       <r>   -22.8912     0.0000     2.0000 </r>
       <r>   -22.7907     0.0000     2.0000 </r>
       <r>   -22.6901     0.0000     2.0000 </r>
       <r>   -22.5896     0.0000     2.0000 </r>
       <r>   -22.4891     0.0000     2.0000 </r>
       <r>   -22.3886     0.0000     2.0000 </r>
       <r>   -22.2881     0.0000     2.0000 </r>
       <r>   -22.1876     0.0000     2.0000 </r>
       <r>   -22.0871     0.0000     2.0000 </r>
       <r>   -21.9866     0.0000     2.0000 </r>
       <r>   -21.8860     0.0000     2.0000 </r>
       <r>   -21.7855     0.0000     2.0000 </r>
       <r>   -21.6850     0.0000     2.0000 </r>
       <r>   -21.5845     0.0000     2.0000 </r>
       <r>   -21.4840     0.0000     2.0000 </r>
       <r>   -21.3835     0.0000     2.0000 </r>
       <r>   -21.2830     0.0000     2.0000 </r>
       <r>   -21.1825     0.0000     2.0000 </r>
       <r>   -21.0820     0.0000     2.0000 </r>
       <r>   -20.9814     0.0000     2.0000 </r>
       <r>   -20.8809     0.0000     2.0000 </r>
       <r>   -20.7804     0.0000     2.0000 </r>
       <r>   -20.6799     0.0000     2.0000 </r>
       <r>   -20.5794     0.0000     2.0000 </r>
       <r>   -20.4789     0.0000     2.0000 </r>
       <r>   -20.3784     0.0000     2.0000 </r>
       <r>   -20.2779     0.0000     2.0000 </r>
       <r>   -20.1774     0.0000     2.0000 </r>
       <r>   -20.0768     0.0000     2.0000 </r>
       <r>   -19.9763     0.0000     2.0000 </r>
       <r>   -19.8758     0.0000     2.0000 </r>
       <r>   -19.7753     0.0000     2.0000 </r>
       <r>   -19.6748     0.0000     2.0000 </r>
       <r>   -19.5743     0.0000     2.0000 </r>
       <r>   -19.4738     0.0000     2.0000 </r>
       <r>   -19.3733     0.0000     2.0000 </r>
       <r>   -19.2727     0.0000     2.0000 </r>
       <r>   -19.1722     0.0000     2.0000 </r>
       <r>   -19.0717     0.0000     2.0000 </r>
       <r>   -18.9712     0.0000     2.0000 </r>
       <r>   -18.8707     0.0000     2.0000 </r>
       <r>   -18.7702     0.0000     2.0000 </r>
       <r>   -18.6697     0.0000     2.0000 </r>
       <r>   -18.5692     0.0000     2.0000 </r>
       <r>   -18.4687     0.0000     2.0000 </r>
       <r>   -18.3681     0.0000     2.0000 </r>
       <r>   -18.2676     0.0000     2.0000 </r>
       <r>   -18.1671     0.0000     2.0000 </r>
       <r>   -18.0666     0.0000     2.0000 </r>
       <r>   -17.9661     0.0000     2.0000 </r>
       <r>   -17.8656     0.0000     2.0000 </r>
       <r>   -17.7651     0.0000     2.0000 </r>
       <r>   -17.6646     0.0000     2.0000 </r>
       <r>   -17.5641     0.0000     2.0000 </r>
       <r>   -17.4635     0.0000     2.0000 </r>
       <r>   -17.3630     0.0000     2.0000 </r>
       <r>   -17.2625     0.0000     2.0000 </r>
       <r>   -17.1620     0.0000     2.0000 </r>
       <r>   -17.0615     0.0000     2.0000 </r>
       <r>   -16.9610     0.0000     2.0000 </r>
       <r>   -16.8605     0.0000     2.0000 </r>
       <r>   -16.7600     0.0000     2.0000 </r>
       <r>   -16.6595     0.0000     2.0000 </r>
       <r>   -16.5589     0.0000     2.0000 </r>
       <r>   -16.4584     0.0000     2.0000 </r>
       <r>   -16.3579     0.0000     2.0000 </r>
       <r>   -16.2574     0.0000     2.0000 </r>
       <r>   -16.1569     0.0000     2.0000 </r>
       <r>   -16.0564     0.0000     2.0000 </r>
       <r>   -15.9559     0.0000     2.0000 </r>
       <r>   -15.8554     0.0000     2.0000 </r>
       <r>   -15.7548     0.0000     2.0000 </r>
       <r>   -15.6543     0.0000     2.0000 </r>
       <r>   -15.5538     0.0000     2.0000 </r>
       <r>   -15.4533     0.0000     2.0000 </r>
       <r>   -15.3528     0.0000     2.0000 </r>
       <r>   -15.2523     0.0000     2.0000 </r>
       <r>   -15.1518     0.0000     2.0000 </r>
       <r>   -15.0513     0.0000     2.0000 </r>
       <r>   -14.9508     0.0000     2.0000 </r>
       <r>   -14.8502     0.0000     2.0000 </r>
       <r>   -14.7497     0.0000     2.0000 </r>
       <r>   -14.6492     0.0000     2.0000 </r>
       <r>   -14.5487     0.0000     2.0000 </r>
       <r>   -14.4482     0.0002     2.0000 </r>
       <r>   -14.3477     0.0043     2.0005 </r>
       <r>   -14.2472     0.0468     2.0052 </r>
       <r>   -14.1467     0.3163     2.0370 </r>
       <r>   -14.0462     1.3133     2.1689 </r>
       <r>   -13.9456     3.3547     2.5061 </r>
       <r>   -13.8451     5.2774     3.0366 </r>
       <r>   -13.7446     5.1151     3.5507 </r>
       <r>   -13.6441     3.0544     3.8577 </r>
       <r>   -13.5436     1.1231     3.9706 </r>
       <r>   -13.4431     0.2541     3.9961 </r>
       <r>   -13.3426     0.0353     3.9997 </r>
       <r>   -13.2421     0.0030     4.0000 </r>
       <r>   -13.1415     0.0002     4.0000 </r>
       <r>   -13.0410     0.0000     4.0000 </r>
       <r>   -12.9405     0.0000     4.0000 </r>
       <r>   -12.8400     0.0000     4.0000 </r>
       <r>   -12.7395     0.0000     4.0000 </r>
       <r>   -12.6390     0.0000     4.0000 </r>
       <r>   -12.5385     0.0000     4.0000 </r>
       <r>   -12.4380     0.0000     4.0000 </r>
       <r>   -12.3375     0.0000     4.0000 </r>
       <r>   -12.2369     0.0000     4.0000 </r>
       <r>   -12.1364     0.0000     4.0000 </r>
       <r>   -12.0359     0.0000     4.0000 </r>
       <r>   -11.9354     0.0000     4.0000 </r>
       <r>   -11.8349     0.0000     4.0000 </r>
       <r>   -11.7344     0.0000     4.0000 </r>
       <r>   -11.6339     0.0000     4.0000 </r>
       <r>   -11.5334     0.0000     4.0000 </r>
       <r>   -11.4329     0.0000     4.0000 </r>
       <r>   -11.3323     0.0000     4.0000 </r>
       <r>   -11.2318     0.0000     4.0000 </r>
       <r>   -11.1313     0.0000     4.0000 </r>
       <r>   -11.0308     0.0000     4.0000 </r>
       <r>   -10.9303     0.0000     4.0000 </r>
       <r>   -10.8298     0.0000     4.0000 </r>
       <r>   -10.7293     0.0000     4.0000 </r>
       <r>   -10.6288     0.0000     4.0000 </r>
       <r>   -10.5282     0.0000     4.0000 </r>
       <r>   -10.4277     0.0000     4.0000 </r>
       <r>   -10.3272     0.0000     4.0000 </r>
       <r>   -10.2267     0.0000     4.0000 </r>
       <r>   -10.1262     0.0000     4.0000 </r>
       <r>   -10.0257     0.0000     4.0000 </r>
       <r>    -9.9252     0.0000     4.0000 </r>
       <r>    -9.8247     0.0000     4.0000 </r>
       <r>    -9.7242     0.0000     4.0000 </r>
       <r>    -9.6236     0.0003     4.0000 </r>
       <r>    -9.5231     0.0045     4.0005 </r>
       <r>    -9.4226     0.0494     4.0055 </r>
       <r>    -9.3221     0.3299     4.0386 </r>
       <r>    -9.2216     1.3529     4.1746 </r>
       <r>    -9.1211     3.4137     4.5177 </r>
       <r>    -9.0206     5.3048     5.0509 </r>
       <r>    -8.9201     5.0790     5.5614 </r>
       <r>    -8.8196     2.9960     5.8625 </r>
       <r>    -8.7190     1.0882     5.9719 </r>
       <r>    -8.6185     0.2431     5.9963 </r>
       <r>    -8.5180     0.0334     5.9997 </r>
       <r>    -8.4175     0.0028     6.0000 </r>
       <r>    -8.3170     0.0001     6.0000 </r>
       <r>    -8.2165     0.0000     6.0000 </r>
       <r>    -8.1160     0.0000     6.0000 </r>
       <r>    -8.0155     0.0000     6.0000 </r>
       <r>    -7.9149     0.0001     6.0000 </r>
       <r>    -7.8144     0.0022     6.0002 </r>
       <r>    -7.7139     0.0269     6.0029 </r>
       <r>    -7.6134     0.2054     6.0236 </r>
       <r>    -7.5129     0.9632     6.1204 </r>
       <r>    -7.4124     2.7775     6.3996 </r>
       <r>    -7.3119     4.9315     6.8952 </r>
       <r>    -7.2114     5.3944     7.4374 </r>
       <r>    -7.1109     3.6357     7.8029 </r>
       <r>    -7.0103     1.5091     7.9546 </r>
       <r>    -6.9098     0.3855     7.9933 </r>
       <r>    -6.8093     0.0605     7.9994 </r>
       <r>    -6.7088     0.0058     8.0000 </r>
       <r>    -6.6083     0.0003     8.0000 </r>
       <r>    -6.5078     0.0000     8.0000 </r>
       <r>    -6.4073     0.0000     8.0000 </r>
       <r>    -6.3068     0.0000     8.0000 </r>
       <r>    -6.2063     0.0000     8.0000 </r>
       <r>    -6.1057     0.0000     8.0000 </r>
       <r>    -6.0052     0.0000     8.0000 </r>
       <r>    -5.9047     0.0000     8.0000 </r>
       <r>    -5.8042     0.0000     8.0000 </r>
       <r>    -5.7037     0.0000     8.0000 </r>
       <r>    -5.6032     0.0000     8.0000 </r>
       <r>    -5.5027     0.0000     8.0000 </r>
       <r>    -5.4022     0.0000     8.0000 </r>
       <r>    -5.3016     0.0000     8.0000 </r>
       <r>    -5.2011     0.0000     8.0000 </r>
       <r>    -5.1006     0.0000     8.0000 </r>
       <r>    -5.0001     0.0000     8.0000 </r>
       <r>    -4.8996     0.0000     8.0000 </r>
       <r>    -4.7991     0.0000     8.0000 </r>
       <r>    -4.6986     0.0000     8.0000 </r>
       <r>    -4.5981     0.0000     8.0000 </r>
       <r>    -4.4976     0.0000     8.0000 </r>
       <r>    -4.3970     0.0000     8.0000 </r>
       <r>    -4.2965     0.0000     8.0000 </r>
       <r>    -4.1960     0.0000     8.0000 </r>
       <r>    -4.0955     0.0000     8.0000 </r>
       <r>    -3.9950     0.0000     8.0000 </r>
       <r>    -3.8945     0.0000     8.0000 </r>
       <r>    -3.7940     0.0000     8.0000 </r>
       <r>    -3.6935     0.0000     8.0000 </r>
       <r>    -3.5930     0.0000     8.0000 </r>
       <r>    -3.4924     0.0000     8.0000 </r>
       <r>    -3.3919     0.0000     8.0000 </r>
       <r>    -3.2914     0.0000     8.0000 </r>
       <r>    -3.1909     0.0000     8.0000 </r>
       <r>    -3.0904     0.0000     8.0000 </r>
       <r>    -2.9899     0.0000     8.0000 </r>
       <r>    -2.8894     0.0000     8.0000 </r>
       <r>    -2.7889     0.0000     8.0000 </r>
       <r>    -2.6883     0.0000     8.0000 </r>
       <r>    -2.5878     0.0000     8.0000 </r>
       <r>    -2.4873     0.0000     8.0000 </r>
       <r>    -2.3868     0.0000     8.0000 </r>
       <r>    -2.2863     0.0000     8.0000 </r>
       <r>    -2.1858     0.0000     8.0000 </r>
       <r>    -2.0853     0.0000     8.0000 </r>
       <r>    -1.9848     0.0000     8.0000 </r>
       <r>    -1.8843     0.0000     8.0000 </r>
       <r>    -1.7837     0.0000     8.0000 </r>
       <r>    -1.6832     0.0000     8.0000 </r>
       <r>    -1.5827     0.0000     8.0000 </r>
       <r>    -1.4822     0.0000     8.0000 </r>
       <r>    -1.3817     0.0009     8.0001 </r>
       <r>    -1.2812     0.0135     8.0015 </r>
       <r>    -1.1807     0.1186     8.0134 </r>
       <r>    -1.0802     0.6420     8.0779 </r>
       <r>    -0.9797     2.1367     8.2927 </r>
       <r>    -0.8791     4.3777     8.7327 </r>
       <r>    -0.7786     5.5249     9.2880 </r>
       <r>    -0.6781     4.2962     9.7198 </r>
       <r>    -0.5776     2.0581     9.9267 </r>
       <r>    -0.4771     0.6114     9.9881 </r>
       <r>    -0.3766     0.1605    10.0043 </r>
       <r>    -0.2761     0.3493    10.0394 </r>
       <r>    -0.1756     1.3962    10.1797 </r>
       <r>    -0.0750     3.6965    10.5512 </r>
       <r>     0.0255     6.8859    11.2433 </r>
       <r>     0.1260    11.0203    12.3510 </r>
       <r>     0.2265    17.1365    14.0734 </r>
       <r>     0.3270    22.1920    16.3040 </r>
       <r>     0.4275    19.9550    18.3097 </r>
       <r>     0.5280    11.5372    19.4693 </r>
       <r>     0.6285     4.1881    19.8903 </r>
       <r>     0.7290     0.9468    19.9854 </r>
       <r>     0.8296     0.1328    19.9988 </r>
       <r>     0.9301     0.0115    19.9999 </r>
       <r>     1.0306     0.0006    20.0000 </r>
       <r>     1.1311     0.0000    20.0000 </r>
       <r>     1.2316     0.0000    20.0000 </r>
       <r>     1.3321     0.0000    20.0000 </r>
       <r>     1.4326     0.0000    20.0000 </r>
       <r>     1.5331     0.0000    20.0000 </r>
       <r>     1.6336     0.0000    20.0000 </r>
       <r>     1.7342     0.0000    20.0000 </r>
       <r>     1.8347     0.0000    20.0000 </r>
       <r>     1.9352     0.0000    20.0000 </r>
       <r>     2.0357     0.0000    20.0000 </r>
       <r>     2.1362     0.0000    20.0000 </r>
       <r>     2.2367     0.0000    20.0000 </r>
       <r>     2.3372     0.0000    20.0000 </r>
      </set>
     </set>
    </array>
   </total>
   <partial>
    <array>
     <dimension dim="1">gridpoints</dimension>
     <dimension dim="2">spin</dimension>
     <dimension dim="3">ion</dimension>
     <field>energy</field>
     <field>  s  </field>
     <field>  p  </field>
     <field>  d  </field>
     <set>
      <set comment="ion 1">
       <set comment="spin 1">
        <r>   -27.8162     0.0000     0.0000     0.0000 </r>
        <r>   -27.7157     0.0000     0.0000     0.0000 </r>
        <r>   -27.6152     0.0000     0.0000     0.0000 </r>
        <r>   -27.5147     0.0000     0.0000     0.0000 </r>
        <r>   -27.4142     0.0000     0.0000     0.0000 </r>
        <r>   -27.3137     0.0000     0.0000     0.0000 </r>
        <r>   -27.2132     0.0000     0.0000     0.0000 </r>
        <r>   -27.1126     0.0000     0.0000     0.0000 </r>
        <r>   -27.0121     0.0000     0.0000     0.0000 </r>
        <r>   -26.9116     0.0000     0.0000     0.0000 </r>
        <r>   -26.8111     0.0000     0.0000     0.0000 </r>
        <r>   -26.7106     0.0000     0.0000     0.0000 </r>
        <r>   -26.6101     0.0000     0.0000     0.0000 </r>
        <r>   -26.5096     0.0000     0.0000     0.0000 </r>
        <r>   -26.4091     0.0002     0.0000     0.0000 </r>
        <r>   -26.3086     0.0033     0.0002     0.0000 </r>
        <r>   -26.2080     0.0352     0.0019     0.0000 </r>
        <r>   -26.1075     0.2333     0.0127     0.0000 </r>
        <r>   -26.0070     0.9511     0.0516     0.0000 </r>
        <r>   -25.9065     2.3862     0.1295     0.0000 </r>
        <r>   -25.8060     3.6866     0.2001     0.0000 </r>
        <r>   -25.7055     3.5093     0.1905     0.0000 </r>
        <r>   -25.6050     2.0581     0.1117     0.0000 </r>
        <r>   -25.5045     0.7432     0.0403     0.0000 </r>
        <r>   -25.4040     0.1651     0.0090     0.0000 </r>
        <r>   -25.3034     0.0225     0.0012     0.0000 </r>
        <r>   -25.2029     0.0019     0.0001     0.0000 </r>
        <r>   -25.1024     0.0001     0.0000     0.0000 </r>
        <r>   -25.0019     0.0000     0.0000     0.0000 </r>
        <r>   -24.9014     0.0000     0.0000     0.0000 </r>
        <r>   -24.8009     0.0000     0.0000     0.0000 </r>
        <r>   -24.7004     0.0000     0.0000     0.0000 </r>
        <r>   -24.5999     0.0000     0.0000     0.0000 </r>
        <r>   -24.4993     0.0000     0.0000     0.0000 </r>
        <r>   -24.3988     0.0000     0.0000     0.0000 </r>
        <r>   -24.2983     0.0000     0.0000     0.0000 </r>
        <r>   -24.1978     0.0000     0.0000     0.0000 </r>
        <r>   -24.0973     0.0000     0.0000     0.0000 </r>
        <r>   -23.9968     0.0000     0.0000     0.0000 </r>
        <r>   -23.8963     0.0000     0.0000     0.0000 </r>
        <r>   -23.7958     0.0000     0.0000     0.0000 </r>
        <r>   -23.6953     0.0000     0.0000     0.0000 </r>
        <r>   -23.5947     0.0000     0.0000     0.0000 </r>
        <r>   -23.4942     0.0000     0.0000     0.0000 </r>
        <r>   -23.3937     0.0000     0.0000     0.0000 </r>
        <r>   -23.2932     0.0000     0.0000     0.0000 </r>
        <r>   -23.1927     0.0000     0.0000     0.0000 </r>
        <r>   -23.0922     0.0000     0.0000     0.0000 </r>
        <r>   -22.9917     0.0000     0.0000     0.0000 </r>
        <r>   -22.8912     0.0000     0.0000     0.0000 </r>
        <r>   -22.7907     0.0000     0.0000     0.0000 </r>
        <r>   -22.6901     0.0000     0.0000     0.0000 </r>
        <r>   -22.5896     0.0000     0.0000     0.0000 </r>
        <r>   -22.4891     0.0000     0.0000     0.0000 </r>
        <r>   -22.3886     0.0000     0.0000     0.0000 </r>
        <r>   -22.2881     0.0000     0.0000     0.0000 </r>
        <r>   -22.1876     0.0000     0.0000     0.0000 </r>
        <r>   -22.0871     0.0000     0.0000     0.0000 </r>
        <r>   -21.9866     0.0000     0.0000     0.0000 </r>
        <r>   -21.8860     0.0000     0.0000     0.0000 </r>
        <r>   -21.7855     0.0000     0.0000     0.0000 </r>
        <r>   -21.6850     0.0000     0.0000     0.0000 </r>
        <r>   -21.5845     0.0000     0.0000     0.0000 </r>
        <r>   -21.4840     0.0000     0.0000     0.0000 </r>
        <r>   -21.3835     0.0000     0.0000     0.0000 </r>
        <r>   -21.2830     0.0000     0.0000     0.0000 </r>
        <r>   -21.1825     0.0000     0.0000     0.0000 </r>
        <r>   -21.0820     0.0000     0.0000     0.0000 </r>
        <r>   -20.9814     0.0000     0.0000     0.0000 </r>
        <r>   -20.8809     0.0000     0.0000     0.0000 </r>
        <r>   -20.7804     0.0000     0.0000     0.0000 </r>
        <r>   -20.6799     0.0000     0.0000     0.0000 </r>
        <r>   -20.5794     0.0000     0.0000     0.0000 </r>
        <r>   -20.4789     0.0000     0.0000     0.0000 </r>
        <r>   -20.3784     0.0000     0.0000     0.0000 </r>
        <r>   -20.2779     0.0000     0.0000     0.0000 </r>
        <r>   -20.1774     0.0000     0.0000     0.0000 </r>
        <r>   -20.0768     0.0000     0.0000     0.0000 </r>
        <r>   -19.9763     0.0000     0.0000     0.0000 </r>
        <r>   -19.8758     0.0000     0.0000     0.0000 </r>
        <r>   -19.7753     0.0000     0.0000     0.0000 </r>
        <r>   -19.6748     0.0000     0.0000     0.0000 </r>
        <r>   -19.5743     0.0000     0.0000     0.0000 </r>
        <r>   -19.4738     0.0000     0.0000     0.0000 </r>
        <r>   -19.3733     0.0000     0.0000     0.0000 </r>
        <r>   -19.2727     0.0000     0.0000     0.0000 </r>
        <r>   -19.1722     0.0000     0.0000     0.0000 </r>
        <r>   -19.0717     0.0000     0.0000     0.0000 </r>
        <r>   -18.9712     0.0000     0.0000     0.0000 </r>
        <r>   -18.8707     0.0000     0.0000     0.0000 </r>
        <r>   -18.7702     0.0000     0.0000     0.0000 </r>
        <r>   -18.6697     0.0000     0.0000     0.0000 </r>
        <r>   -18.5692     0.0000     0.0000     0.0000 </r>
        <r>   -18.4687     0.0000     0.0000     0.0000 </r>
        <r>   -18.3681     0.0000     0.0000     0.0000 </r>
        <r>   -18.2676     0.0000     0.0000     0.0000 </r>
        <r>   -18.1671     0.0000     0.0000     0.0000 </r>
        <r>   -18.0666     0.0000     0.0000     0.0000 </r>
        <r>   -17.9661     0.0000     0.0000     0.0000 </r>
        <r>   -17.8656     0.0000     0.0000     0.0000 </r>
        <r>   -17.7651     0.0000     0.0000     0.0000 </r>
        <r>   -17.6646     0.0000     0.0000     0.0000 </r>
        <r>   -17.5641     0.0000     0.0000     0.0000 </r>
        <r>   -17.4635     0.0000     0.0000     0.0000 </r>
        <r>   -17.3630     0.0000     0.0000     0.0000 </r>
        <r>   -17.2625     0.0000     0.0000     0.0000 </r>
        <r>   -17.1620     0.0000     0.0000     0.0000 </r>
        <r>   -17.0615     0.0000     0.0000     0.0000 </r>
        <r>   -16.9610     0.0000     0.0000     0.0000 </r>
        <r>   -16.8605     0.0000     0.0000     0.0000 </r>
        <r>   -16.7600     0.0000     0.0000     0.0000 </r>
        <r>   -16.6595     0.0000     0.0000     0.0000 </r>
        <r>   -16.5589     0.0000     0.0000     0.0000 </r>
        <r>   -16.4584     0.0000     0.0000     0.0000 </r>
        <r>   -16.3579     0.0000     0.0000     0.0000 </r>
        <r>   -16.2574     0.0000     0.0000     0.0000 </r>
        <r>   -16.1569     0.0000     0.0000     0.0000 </r>
        <r>   -16.0564     0.0000     0.0000     0.0000 </r>
        <r>   -15.9559     0.0000     0.0000     0.0000 </r>
        <r>   -15.8554     0.0000     0.0000     0.0000 </r>
        <r>   -15.7548     0.0000     0.0000     0.0000 </r>
        <r>   -15.6543     0.0000     0.0000     0.0000 </r>
        <r>   -15.5538     0.0000     0.0000     0.0000 </r>
        <r>   -15.4533     0.0000     0.0000     0.0000 </r>
        <r>   -15.3528     0.0000     0.0000     0.0000 </r>
        <r>   -15.2523     0.0000     0.0000     0.0000 </r>
        <r>   -15.1518     0.0000     0.0000     0.0000 </r>
        <r>   -15.0513     0.0000     0.0000     0.0000 </r>
        <r>   -14.9508     0.0000     0.0000     0.0000 </r>
        <r>   -14.8502     0.0000     0.0000     0.0000 </r>
        <r>   -14.7497     0.0000     0.0000     0.0000 </r>
        <r>   -14.6492     0.0000     0.0000     0.0000 </r>
        <r>   -14.5487     0.0000     0.0000     0.0000 </r>
        <r>   -14.4482     0.0000     0.0001     0.0000 </r>
        <r>   -14.3477     0.0000     0.0024     0.0000 </r>
        <r>   -14.2472     0.0000     0.0268     0.0000 </r>
        <r>   -14.1467     0.0000     0.1808     0.0000 </r>
        <r>   -14.0462     0.0000     0.7507     0.0000 </r>
        <r>   -13.9456     0.0000     1.9177     0.0000 </r>
        <r>   -13.8451     0.0000     3.0168     0.0000 </r>
        <r>   -13.7446     0.0000     2.9240     0.0000 </r>
        <r>   -13.6441     0.0000     1.7461     0.0000 </r>
        <r>   -13.5436     0.0000     0.6420     0.0000 </r>
        <r>   -13.4431     0.0000     0.1452     0.0000 </r>
        <r>   -13.3426     0.0000     0.0202     0.0000 </r>
        <r>   -13.2421     0.0000     0.0017     0.0000 </r>
        <r>   -13.1415     0.0000     0.0001     0.0000 </r>
        <r>   -13.0410     0.0000     0.0000     0.0000 </r>
        <r>   -12.9405     0.0000     0.0000     0.0000 </r>
        <r>   -12.8400     0.0000     0.0000     0.0000 </r>
        <r>   -12.7395     0.0000     0.0000     0.0000 </r>
        <r>   -12.6390     0.0000     0.0000     0.0000 </r>
        <r>   -12.5385     0.0000     0.0000     0.0000 </r>
        <r>   -12.4380     0.0000     0.0000     0.0000 </r>
        <r>   -12.3375     0.0000     0.0000     0.0000 </r>
        <r>   -12.2369     0.0000     0.0000     0.0000 </r>
        <r>   -12.1364     0.0000     0.0000     0.0000 </r>
        <r>   -12.0359     0.0000     0.0000     0.0000 </r>
        <r>   -11.9354     0.0000     0.0000     0.0000 </r>
        <r>   -11.8349     0.0000     0.0000     0.0000 </r>
        <r>   -11.7344     0.0000     0.0000     0.0000 </r>
        <r>   -11.6339     0.0000     0.0000     0.0000 </r>
        <r>   -11.5334     0.0000     0.0000     0.0000 </r>
        <r>   -11.4329     0.0000     0.0000     0.0000 </r>
        <r>   -11.3323     0.0000     0.0000     0.0000 </r>
        <r>   -11.2318     0.0000     0.0000     0.0000 </r>
        <r>   -11.1313     0.0000     0.0000     0.0000 </r>
        <r>   -11.0308     0.0000     0.0000     0.0000 </r>
        <r>   -10.9303     0.0000     0.0000     0.0000 </r>
        <r>   -10.8298     0.0000     0.0000     0.0000 </r>
        <r>   -10.7293     0.0000     0.0000     0.0000 </r>
        <r>   -10.6288     0.0000     0.0000     0.0000 </r>
        <r>   -10.5282     0.0000     0.0000     0.0000 </r>
        <r>   -10.4277     0.0000     0.0000     0.0000 </r>
        <r>   -10.3272     0.0000     0.0000     0.0000 </r>
        <r>   -10.2267     0.0000     0.0000     0.0000 </r>
        <r>   -10.1262     0.0000     0.0000     0.0000 </r>
        <r>   -10.0257     0.0000     0.0000     0.0000 </r>
        <r>    -9.9252     0.0000     0.0000     0.0000 </r>
        <r>    -9.8247     0.0000     0.0000     0.0000 </r>
        <r>    -9.7242     0.0000     0.0000     0.0000 </r>
        <r>    -9.6236     0.0000     0.0001     0.0000 </r>
        <r>    -9.5231     0.0003     0.0026     0.0000 </r>
        <r>    -9.4226     0.0037     0.0285     0.0000 </r>
        <r>    -9.3221     0.0246     0.1903     0.0000 </r>
        <r>    -9.2216     0.1011     0.7806     0.0000 </r>
        <r>    -9.1211     0.2551     1.9697     0.0000 </r>
        <r>    -9.0206     0.3964     3.0609     0.0000 </r>
        <r>    -8.9201     0.3795     2.9306     0.0000 </r>
        <r>    -8.8196     0.2239     1.7287     0.0000 </r>
        <r>    -8.7190     0.0813     0.6279     0.0000 </r>
        <r>    -8.6185     0.0182     0.1403     0.0000 </r>
        <r>    -8.5180     0.0025     0.0193     0.0000 </r>
        <r>    -8.4175     0.0002     0.0016     0.0000 </r>
        <r>    -8.3170     0.0000     0.0001     0.0000 </r>
        <r>    -8.2165     0.0000     0.0000     0.0000 </r>
        <r>    -8.1160     0.0000     0.0000     0.0000 </r>
        <r>    -8.0155     0.0000     0.0000     0.0000 </r>
        <r>    -7.9149     0.0000     0.0001     0.0000 </r>
        <r>    -7.8144     0.0000     0.0015     0.0000 </r>
        <r>    -7.7139     0.0000     0.0182     0.0000 </r>
        <r>    -7.6134     0.0000     0.1392     0.0000 </r>
        <r>    -7.5129     0.0000     0.6527     0.0000 </r>
        <r>    -7.4124     0.0000     1.8821     0.0000 </r>
        <r>    -7.3119     0.0000     3.3417     0.0000 </r>
        <r>    -7.2114     0.0000     3.6554     0.0000 </r>
        <r>    -7.1109     0.0000     2.4636     0.0000 </r>
        <r>    -7.0103     0.0000     1.0226     0.0000 </r>
        <r>    -6.9098     0.0000     0.2612     0.0000 </r>
        <r>    -6.8093     0.0000     0.0410     0.0000 </r>
        <r>    -6.7088     0.0000     0.0040     0.0000 </r>
        <r>    -6.6083     0.0000     0.0002     0.0000 </r>
        <r>    -6.5078     0.0000     0.0000     0.0000 </r>
        <r>    -6.4073     0.0000     0.0000     0.0000 </r>
        <r>    -6.3068     0.0000     0.0000     0.0000 </r>
        <r>    -6.2063     0.0000     0.0000     0.0000 </r>
        <r>    -6.1057     0.0000     0.0000     0.0000 </r>
        <r>    -6.0052     0.0000     0.0000     0.0000 </r>
        <r>    -5.9047     0.0000     0.0000     0.0000 </r>
        <r>    -5.8042     0.0000     0.0000     0.0000 </r>
        <r>    -5.7037     0.0000     0.0000     0.0000 </r>
        <r>    -5.6032     0.0000     0.0000     0.0000 </r>
        <r>    -5.5027     0.0000     0.0000     0.0000 </r>
        <r>    -5.4022     0.0000     0.0000     0.0000 </r>
        <r>    -5.3016     0.0000     0.0000     0.0000 </r>
        <r>    -5.2011     0.0000     0.0000     0.0000 </r>
        <r>    -5.1006     0.0000     0.0000     0.0000 </r>
        <r>    -5.0001     0.0000     0.0000     0.0000 </r>
        <r>    -4.8996     0.0000     0.0000     0.0000 </r>
        <r>    -4.7991     0.0000     0.0000     0.0000 </r>
        <r>    -4.6986     0.0000     0.0000     0.0000 </r>
        <r>    -4.5981     0.0000     0.0000     0.0000 </r>
        <r>    -4.4976     0.0000     0.0000     0.0000 </r>
        <r>    -4.3970     0.0000     0.0000     0.0000 </r>
        <r>    -4.2965     0.0000     0.0000     0.0000 </r>
        <r>    -4.1960     0.0000     0.0000     0.0000 </r>
        <r>    -4.0955     0.0000     0.0000     0.0000 </r>
        <r>    -3.9950     0.0000     0.0000     0.0000 </r>
        <r>    -3.8945     0.0000     0.0000     0.0000 </r>
        <r>    -3.7940     0.0000     0.0000     0.0000 </r>
        <r>    -3.6935     0.0000     0.0000     0.0000 </r>
        <r>    -3.5930     0.0000     0.0000     0.0000 </r>
        <r>    -3.4924     0.0000     0.0000     0.0000 </r>
        <r>    -3.3919     0.0000     0.0000     0.0000 </r>
        <r>    -3.2914     0.0000     0.0000     0.0000 </r>
        <r>    -3.1909     0.0000     0.0000     0.0000 </r>
        <r>    -3.0904     0.0000     0.0000     0.0000 </r>
        <r>    -2.9899     0.0000     0.0000     0.0000 </r>
        <r>    -2.8894     0.0000     0.0000     0.0000 </r>
        <r>    -2.7889     0.0000     0.0000     0.0000 </r>
        <r>    -2.6883     0.0000     0.0000     0.0000 </r>
        <r>    -2.5878     0.0000     0.0000     0.0000 </r>
        <r>    -2.4873     0.0000     0.0000     0.0000 </r>
        <r>    -2.3868     0.0000     0.0000     0.0000 </r>
        <r>    -2.2863     0.0000     0.0000     0.0000 </r>
        <r>    -2.1858     0.0000     0.0000     0.0000 </r>
        <r>    -2.0853     0.0000     0.0000     0.0000 </r>
        <r>    -1.9848     0.0000     0.0000     0.0000 </r>
        <r>    -1.8843     0.0000     0.0000     0.0000 </r>
        <r>    -1.7837     0.0000     0.0000     0.0000 </r>
        <r>    -1.6832     0.0000     0.0000     0.0000 </r>
        <r>    -1.5827     0.0000     0.0000     0.0000 </r>
        <r>    -1.4822     0.0000     0.0000     0.0000 </r>
        <r>    -1.3817     0.0000     0.0000     0.0000 </r>
        <r>    -1.2812     0.0003     0.0003     0.0000 </r>
        <r>    -1.1807     0.0030     0.0028     0.0000 </r>
        <r>    -1.0802     0.0163     0.0153     0.0000 </r>
        <r>    -0.9797     0.0542     0.0510     0.0000 </r>
        <r>    -0.8791     0.1110     0.1046     0.0000 </r>
        <r>    -0.7786     0.1401     0.1320     0.0000 </r>
        <r>    -0.6781     0.1089     0.1026     0.0000 </r>
        <r>    -0.5776     0.0522     0.0492     0.0000 </r>
        <r>    -0.4771     0.0154     0.0145     0.0000 </r>
        <r>    -0.3766     0.0028     0.0027     0.0000 </r>
        <r>    -0.2761     0.0006     0.0007     0.0000 </r>
        <r>    -0.1756     0.0012     0.0017     0.0000 </r>
        <r>    -0.0750     0.0029     0.0050     0.0000 </r>
        <r>     0.0255     0.0047     0.0125     0.0000 </r>
        <r>     0.1260     0.0051     0.0277     0.0000 </r>
        <r>     0.2265     0.0047     0.0489     0.0000 </r>
        <r>     0.3270     0.0044     0.0594     0.0000 </r>
        <r>     0.4275     0.0036     0.0464     0.0000 </r>
        <r>     0.5280     0.0021     0.0228     0.0000 </r>
        <r>     0.6285     0.0008     0.0070     0.0000 </r>
        <r>     0.7290     0.0002     0.0013     0.0000 </r>
        <r>     0.8296     0.0000     0.0002     0.0000 </r>
        <r>     0.9301     0.0000     0.0000     0.0000 </r>
        <r>     1.0306     0.0000     0.0000     0.0000 </r>
        <r>     1.1311     0.0000     0.0000     0.0000 </r>
        <r>     1.2316     0.0000     0.0000     0.0000 </r>
        <r>     1.3321     0.0000     0.0000     0.0000 </r>
        <r>     1.4326     0.0000     0.0000     0.0000 </r>
        <r>     1.5331     0.0000     0.0000     0.0000 </r>
        <r>     1.6336     0.0000     0.0000     0.0000 </r>
        <r>     1.7342     0.0000     0.0000     0.0000 </r>
        <r>     1.8347     0.0000     0.0000     0.0000 </r>
        <r>     1.9352     0.0000     0.0000     0.0000 </r>
        <r>     2.0357     0.0000     0.0000     0.0000 </r>
        <r>     2.1362     0.0000     0.0000     0.0000 </r>
        <r>     2.2367     0.0000     0.0000     0.0000 </r>
        <r>     2.3372     0.0000     0.0000     0.0000 </r>
       </set>
      </set>
      <set comment="ion 2">
       <set comment="spin 1">
        <r>   -27.8162     0.0000     0.0000     0.0000 </r>
        <r>   -27.7157     0.0000     0.0000     0.0000 </r>
        <r>   -27.6152     0.0000     0.0000     0.0000 </r>
        <r>   -27.5147     0.0000     0.0000     0.0000 </r>
        <r>   -27.4142     0.0000     0.0000     0.0000 </r>
        <r>   -27.3137     0.0000     0.0000     0.0000 </r>
        <r>   -27.2132     0.0000     0.0000     0.0000 </r>
        <r>   -27.1126     0.0000     0.0000     0.0000 </r>
        <r>   -27.0121     0.0000     0.0000     0.0000 </r>
        <r>   -26.9116     0.0000     0.0000     0.0000 </r>
        <r>   -26.8111     0.0000     0.0000     0.0000 </r>
        <r>   -26.7106     0.0000     0.0000     0.0000 </r>
        <r>   -26.6101     0.0000     0.0000     0.0000 </r>
        <r>   -26.5096     0.0000     0.0000     0.0000 </r>
        <r>   -26.4091     0.0000     0.0000     0.0000 </r>
        <r>   -26.3086     0.0005     0.0002     0.0000 </r>
        <r>   -26.2080     0.0057     0.0019     0.0000 </r>
        <r>   -26.1075     0.0377     0.0124     0.0000 </r>
        <r>   -26.0070     0.1536     0.0506     0.0000 </r>
        <r>   -25.9065     0.3854     0.1269     0.0000 </r>
        <r>   -25.8060     0.5955     0.1960     0.0000 </r>
        <r>   -25.7055     0.5668     0.1866     0.0000 </r>
        <r>   -25.6050     0.3324     0.1094     0.0000 </r>
        <r>   -25.5045     0.1200     0.0395     0.0000 </r>
        <r>   -25.4040     0.0267     0.0088     0.0000 </r>
        <r>   -25.3034     0.0036     0.0012     0.0000 </r>
        <r>   -25.2029     0.0003     0.0001     0.0000 </r>
        <r>   -25.1024     0.0000     0.0000     0.0000 </r>
        <r>   -25.0019     0.0000     0.0000     0.0000 </r>
        <r>   -24.9014     0.0000     0.0000     0.0000 </r>
        <r>   -24.8009     0.0000     0.0000     0.0000 </r>
        <r>   -24.7004     0.0000     0.0000     0.0000 </r>
        <r>   -24.5999     0.0000     0.0000     0.0000 </r>
        <r>   -24.4993     0.0000     0.0000     0.0000 </r>
        <r>   -24.3988     0.0000     0.0000     0.0000 </r>
        <r>   -24.2983     0.0000     0.0000     0.0000 </r>
        <r>   -24.1978     0.0000     0.0000     0.0000 </r>
        <r>   -24.0973     0.0000     0.0000     0.0000 </r>
        <r>   -23.9968     0.0000     0.0000     0.0000 </r>
        <r>   -23.8963     0.0000     0.0000     0.0000 </r>
        <r>   -23.7958     0.0000     0.0000     0.0000 </r>
        <r>   -23.6953     0.0000     0.0000     0.0000 </r>
        <r>   -23.5947     0.0000     0.0000     0.0000 </r>
        <r>   -23.4942     0.0000     0.0000     0.0000 </r>
        <r>   -23.3937     0.0000     0.0000     0.0000 </r>
        <r>   -23.2932     0.0000     0.0000     0.0000 </r>
        <r>   -23.1927     0.0000     0.0000     0.0000 </r>
        <r>   -23.0922     0.0000     0.0000     0.0000 </r>
        <r>   -22.9917     0.0000     0.0000     0.0000 </r>
        <r>   -22.8912     0.0000     0.0000     0.0000 </r>
        <r>   -22.7907     0.0000     0.0000     0.0000 </r>
        <r>   -22.6901     0.0000     0.0000     0.0000 </r>
        <r>   -22.5896     0.0000     0.0000     0.0000 </r>
[...]
        <r>   -24.3988     0.0000     0.0000     0.0000 </r>
        <r>   -24.2983     0.0000     0.0000     0.0000 </r>
        <r>   -24.1978     0.0000     0.0000     0.0000 </r>
        <r>   -24.0973     0.0000     0.0000     0.0000 </r>
        <r>   -23.9968     0.0000     0.0000     0.0000 </r>
        <r>   -23.8963     0.0000     0.0000     0.0000 </r>
        <r>   -23.7958     0.0000     0.0000     0.0000 </r>
        <r>   -23.6953     0.0000     0.0000     0.0000 </r>
        <r>   -23.5947     0.0000     0.0000     0.0000 </r>
        <r>   -23.4942     0.0000     0.0000     0.0000 </r>
        <r>   -23.3937     0.0000     0.0000     0.0000 </r>
        <r>   -23.2932     0.0000     0.0000     0.0000 </r>
        <r>   -23.1927     0.0000     0.0000     0.0000 </r>
        <r>   -23.0922     0.0000     0.0000     0.0000 </r>
        <r>   -22.9917     0.0000     0.0000     0.0000 </r>
        <r>   -22.8912     0.0000     0.0000     0.0000 </r>
        <r>   -22.7907     0.0000     0.0000     0.0000 </r>
        <r>   -22.6901     0.0000     0.0000     0.0000 </r>
        <r>   -22.5896     0.0000     0.0000     0.0000 </r>
        <r>   -22.4891     0.0000     0.0000     0.0000 </r>
        <r>   -22.3886     0.0000     0.0000     0.0000 </r>
        <r>   -22.2881     0.0000     0.0000     0.0000 </r>
        <r>   -22.1876     0.0000     0.0000     0.0000 </r>
        <r>   -22.0871     0.0000     0.0000     0.0000 </r>
        <r>   -21.9866     0.0000     0.0000     0.0000 </r>
        <r>   -21.8860     0.0000     0.0000     0.0000 </r>
        <r>   -21.7855     0.0000     0.0000     0.0000 </r>
        <r>   -21.6850     0.0000     0.0000     0.0000 </r>
        <r>   -21.5845     0.0000     0.0000     0.0000 </r>
        <r>   -21.4840     0.0000     0.0000     0.0000 </r>
        <r>   -21.3835     0.0000     0.0000     0.0000 </r>
        <r>   -21.2830     0.0000     0.0000     0.0000 </r>
        <r>   -21.1825     0.0000     0.0000     0.0000 </r>
        <r>   -21.0820     0.0000     0.0000     0.0000 </r>
        <r>   -20.9814     0.0000     0.0000     0.0000 </r>
        <r>   -20.8809     0.0000     0.0000     0.0000 </r>
        <r>   -20.7804     0.0000     0.0000     0.0000 </r>
        <r>   -20.6799     0.0000     0.0000     0.0000 </r>
        <r>   -20.5794     0.0000     0.0000     0.0000 </r>
        <r>   -20.4789     0.0000     0.0000     0.0000 </r>
        <r>   -20.3784     0.0000     0.0000     0.0000 </r>
        <r>   -20.2779     0.0000     0.0000     0.0000 </r>
        <r>   -20.1774     0.0000     0.0000     0.0000 </r>
        <r>   -20.0768     0.0000     0.0000     0.0000 </r>
        <r>   -19.9763     0.0000     0.0000     0.0000 </r>
        <r>   -19.8758     0.0000     0.0000     0.0000 </r>
        <r>   -19.7753     0.0000     0.0000     0.0000 </r>
        <r>   -19.6748     0.0000     0.0000     0.0000 </r>
        <r>   -19.5743     0.0000     0.0000     0.0000 </r>
        <r>   -19.4738     0.0000     0.0000     0.0000 </r>
        <r>   -19.3733     0.0000     0.0000     0.0000 </r>
        <r>   -19.2727     0.0000     0.0000     0.0000 </r>
        <r>   -19.1722     0.0000     0.0000     0.0000 </r>
        <r>   -19.0717     0.0000     0.0000     0.0000 </r>
        <r>   -18.9712     0.0000     0.0000     0.0000 </r>
        <r>   -18.8707     0.0000     0.0000     0.0000 </r>
        <r>   -18.7702     0.0000     0.0000     0.0000 </r>
        <r>   -18.6697     0.0000     0.0000     0.0000 </r>
        <r>   -18.5692     0.0000     0.0000     0.0000 </r>
        <r>   -18.4687     0.0000     0.0000     0.0000 </r>
        <r>   -18.3681     0.0000     0.0000     0.0000 </r>
        <r>   -18.2676     0.0000     0.0000     0.0000 </r>
        <r>   -18.1671     0.0000     0.0000     0.0000 </r>
        <r>   -18.0666     0.0000     0.0000     0.0000 </r>
        <r>   -17.9661     0.0000     0.0000     0.0000 </r>
        <r>   -17.8656     0.0000     0.0000     0.0000 </r>
        <r>   -17.7651     0.0000     0.0000     0.0000 </r>
        <r>   -17.6646     0.0000     0.0000     0.0000 </r>
        <r>   -17.5641     0.0000     0.0000     0.0000 </r>
        <r>   -17.4635     0.0000     0.0000     0.0000 </r>
        <r>   -17.3630     0.0000     0.0000     0.0000 </r>
        <r>   -17.2625     0.0000     0.0000     0.0000 </r>
        <r>   -17.1620     0.0000     0.0000     0.0000 </r>
        <r>   -17.0615     0.0000     0.0000     0.0000 </r>
        <r>   -16.9610     0.0000     0.0000     0.0000 </r>
        <r>   -16.8605     0.0000     0.0000     0.0000 </r>
        <r>   -16.7600     0.0000     0.0000     0.0000 </r>
        <r>   -16.6595     0.0000     0.0000     0.0000 </r>
        <r>   -16.5589     0.0000     0.0000     0.0000 </r>
        <r>   -16.4584     0.0000     0.0000     0.0000 </r>
        <r>   -16.3579     0.0000     0.0000     0.0000 </r>
        <r>   -16.2574     0.0000     0.0000     0.0000 </r>
        <r>   -16.1569     0.0000     0.0000     0.0000 </r>
        <r>   -16.0564     0.0000     0.0000     0.0000 </r>
        <r>   -15.9559     0.0000     0.0000     0.0000 </r>
        <r>   -15.8554     0.0000     0.0000     0.0000 </r>
        <r>   -15.7548     0.0000     0.0000     0.0000 </r>
        <r>   -15.6543     0.0000     0.0000     0.0000 </r>
        <r>   -15.5538     0.0000     0.0000     0.0000 </r>
        <r>   -15.4533     0.0000     0.0000     0.0000 </r>
        <r>   -15.3528     0.0000     0.0000     0.0000 </r>
        <r>   -15.2523     0.0000     0.0000     0.0000 </r>
        <r>   -15.1518     0.0000     0.0000     0.0000 </r>
        <r>   -15.0513     0.0000     0.0000     0.0000 </r>
        <r>   -14.9508     0.0000     0.0000     0.0000 </r>
        <r>   -14.8502     0.0000     0.0000     0.0000 </r>
        <r>   -14.7497     0.0000     0.0000     0.0000 </r>
        <r>   -14.6492     0.0000     0.0000     0.0000 </r>
        <r>   -14.5487     0.0000     0.0000     0.0000 </r>
        <r>   -14.4482     0.0000     0.0000     0.0000 </r>
        <r>   -14.3477     0.0008     0.0001     0.0000 </r>
        <r>   -14.2472     0.0088     0.0012     0.0000 </r>
        <r>   -14.1467     0.0592     0.0084     0.0000 </r>
        <r>   -14.0462     0.2459     0.0347     0.0000 </r>
        <r>   -13.9456     0.6281     0.0886     0.0000 </r>
        <r>   -13.8451     0.9881     0.1394     0.0000 </r>
        <r>   -13.7446     0.9577     0.1351     0.0000 </r>
        <r>   -13.6441     0.5719     0.0807     0.0000 </r>
        <r>   -13.5436     0.2103     0.0297     0.0000 </r>
        <r>   -13.4431     0.0476     0.0067     0.0000 </r>
        <r>   -13.3426     0.0066     0.0009     0.0000 </r>
        <r>   -13.2421     0.0006     0.0001     0.0000 </r>
        <r>   -13.1415     0.0000     0.0000     0.0000 </r>
        <r>   -13.0410     0.0000     0.0000     0.0000 </r>
        <r>   -12.9405     0.0000     0.0000     0.0000 </r>
        <r>   -12.8400     0.0000     0.0000     0.0000 </r>
        <r>   -12.7395     0.0000     0.0000     0.0000 </r>
        <r>   -12.6390     0.0000     0.0000     0.0000 </r>
        <r>   -12.5385     0.0000     0.0000     0.0000 </r>
        <r>   -12.4380     0.0000     0.0000     0.0000 </r>
        <r>   -12.3375     0.0000     0.0000     0.0000 </r>
        <r>   -12.2369     0.0000     0.0000     0.0000 </r>
        <r>   -12.1364     0.0000     0.0000     0.0000 </r>
        <r>   -12.0359     0.0000     0.0000     0.0000 </r>
        <r>   -11.9354     0.0000     0.0000     0.0000 </r>
        <r>   -11.8349     0.0000     0.0000     0.0000 </r>
        <r>   -11.7344     0.0000     0.0000     0.0000 </r>
        <r>   -11.6339     0.0000     0.0000     0.0000 </r>
        <r>   -11.5334     0.0000     0.0000     0.0000 </r>
        <r>   -11.4329     0.0000     0.0000     0.0000 </r>
        <r>   -11.3323     0.0000     0.0000     0.0000 </r>
        <r>   -11.2318     0.0000     0.0000     0.0000 </r>
        <r>   -11.1313     0.0000     0.0000     0.0000 </r>
        <r>   -11.0308     0.0000     0.0000     0.0000 </r>
        <r>   -10.9303     0.0000     0.0000     0.0000 </r>
        <r>   -10.8298     0.0000     0.0000     0.0000 </r>
        <r>   -10.7293     0.0000     0.0000     0.0000 </r>
        <r>   -10.6288     0.0000     0.0000     0.0000 </r>
        <r>   -10.5282     0.0000     0.0000     0.0000 </r>
        <r>   -10.4277     0.0000     0.0000     0.0000 </r>
        <r>   -10.3272     0.0000     0.0000     0.0000 </r>
        <r>   -10.2267     0.0000     0.0000     0.0000 </r>
        <r>   -10.1262     0.0000     0.0000     0.0000 </r>
        <r>   -10.0257     0.0000     0.0000     0.0000 </r>
        <r>    -9.9252     0.0000     0.0000     0.0000 </r>
        <r>    -9.8247     0.0000     0.0000     0.0000 </r>
        <r>    -9.7242     0.0000     0.0000     0.0000 </r>
        <r>    -9.6236     0.0000     0.0000     0.0000 </r>
        <r>    -9.5231     0.0002     0.0001     0.0000 </r>
        <r>    -9.4226     0.0020     0.0009     0.0000 </r>
        <r>    -9.3221     0.0135     0.0060     0.0000 </r>
        <r>    -9.2216     0.0552     0.0245     0.0000 </r>
        <r>    -9.1211     0.1392     0.0619     0.0000 </r>
        <r>    -9.0206     0.2163     0.0962     0.0000 </r>
        <r>    -8.9201     0.2071     0.0921     0.0000 </r>
        <r>    -8.8196     0.1222     0.0543     0.0000 </r>
        <r>    -8.7190     0.0444     0.0197     0.0000 </r>
        <r>    -8.6185     0.0099     0.0044     0.0000 </r>
        <r>    -8.5180     0.0014     0.0006     0.0000 </r>
        <r>    -8.4175     0.0001     0.0001     0.0000 </r>
        <r>    -8.3170     0.0000     0.0000     0.0000 </r>
        <r>    -8.2165     0.0000     0.0000     0.0000 </r>
        <r>    -8.1160     0.0000     0.0000     0.0000 </r>
        <r>    -8.0155     0.0000     0.0000     0.0000 </r>
        <r>    -7.9149     0.0000     0.0000     0.0000 </r>
        <r>    -7.8144     0.0000     0.0000     0.0000 </r>
        <r>    -7.7139     0.0000     0.0003     0.0000 </r>
        <r>    -7.6134     0.0000     0.0027     0.0000 </r>
        <r>    -7.5129     0.0000     0.0125     0.0000 </r>
        <r>    -7.4124     0.0000     0.0359     0.0000 </r>
        <r>    -7.3119     0.0000     0.0638     0.0000 </r>
        <r>    -7.2114     0.0000     0.0698     0.0000 </r>
        <r>    -7.1109     0.0000     0.0470     0.0000 </r>
        <r>    -7.0103     0.0000     0.0195     0.0000 </r>
        <r>    -6.9098     0.0000     0.0050     0.0000 </r>
        <r>    -6.8093     0.0000     0.0008     0.0000 </r>
        <r>    -6.7088     0.0000     0.0001     0.0000 </r>
        <r>    -6.6083     0.0000     0.0000     0.0000 </r>
        <r>    -6.5078     0.0000     0.0000     0.0000 </r>
        <r>    -6.4073     0.0000     0.0000     0.0000 </r>
        <r>    -6.3068     0.0000     0.0000     0.0000 </r>
        <r>    -6.2063     0.0000     0.0000     0.0000 </r>
        <r>    -6.1057     0.0000     0.0000     0.0000 </r>
        <r>    -6.0052     0.0000     0.0000     0.0000 </r>
        <r>    -5.9047     0.0000     0.0000     0.0000 </r>
        <r>    -5.8042     0.0000     0.0000     0.0000 </r>
        <r>    -5.7037     0.0000     0.0000     0.0000 </r>
        <r>    -5.6032     0.0000     0.0000     0.0000 </r>
        <r>    -5.5027     0.0000     0.0000     0.0000 </r>
        <r>    -5.4022     0.0000     0.0000     0.0000 </r>
        <r>    -5.3016     0.0000     0.0000     0.0000 </r>
        <r>    -5.2011     0.0000     0.0000     0.0000 </r>
        <r>    -5.1006     0.0000     0.0000     0.0000 </r>
        <r>    -5.0001     0.0000     0.0000     0.0000 </r>
        <r>    -4.8996     0.0000     0.0000     0.0000 </r>
        <r>    -4.7991     0.0000     0.0000     0.0000 </r>
        <r>    -4.6986     0.0000     0.0000     0.0000 </r>
        <r>    -4.5981     0.0000     0.0000     0.0000 </r>
        <r>    -4.4976     0.0000     0.0000     0.0000 </r>
        <r>    -4.3970     0.0000     0.0000     0.0000 </r>
        <r>    -4.2965     0.0000     0.0000     0.0000 </r>
        <r>    -4.1960     0.0000     0.0000     0.0000 </r>
        <r>    -4.0955     0.0000     0.0000     0.0000 </r>
        <r>    -3.9950     0.0000     0.0000     0.0000 </r>
        <r>    -3.8945     0.0000     0.0000     0.0000 </r>
        <r>    -3.7940     0.0000     0.0000     0.0000 </r>
        <r>    -3.6935     0.0000     0.0000     0.0000 </r>
        <r>    -3.5930     0.0000     0.0000     0.0000 </r>
        <r>    -3.4924     0.0000     0.0000     0.0000 </r>
        <r>    -3.3919     0.0000     0.0000     0.0000 </r>
        <r>    -3.2914     0.0000     0.0000     0.0000 </r>
        <r>    -3.1909     0.0000     0.0000     0.0000 </r>
        <r>    -3.0904     0.0000     0.0000     0.0000 </r>
        <r>    -2.9899     0.0000     0.0000     0.0000 </r>
        <r>    -2.8894     0.0000     0.0000     0.0000 </r>
        <r>    -2.7889     0.0000     0.0000     0.0000 </r>
        <r>    -2.6883     0.0000     0.0000     0.0000 </r>
        <r>    -2.5878     0.0000     0.0000     0.0000 </r>
        <r>    -2.4873     0.0000     0.0000     0.0000 </r>
        <r>    -2.3868     0.0000     0.0000     0.0000 </r>
        <r>    -2.2863     0.0000     0.0000     0.0000 </r>
        <r>    -2.1858     0.0000     0.0000     0.0000 </r>
        <r>    -2.0853     0.0000     0.0000     0.0000 </r>
        <r>    -1.9848     0.0000     0.0000     0.0000 </r>
        <r>    -1.8843     0.0000     0.0000     0.0000 </r>
        <r>    -1.7837     0.0000     0.0000     0.0000 </r>
        <r>    -1.6832     0.0000     0.0000     0.0000 </r>
        <r>    -1.5827     0.0000     0.0000     0.0000 </r>
        <r>    -1.4822     0.0000     0.0000     0.0000 </r>
        <r>    -1.3817     0.0000     0.0000     0.0000 </r>
        <r>    -1.2812     0.0000     0.0002     0.0000 </r>
        <r>    -1.1807     0.0003     0.0015     0.0000 </r>
        <r>    -1.0802     0.0018     0.0083     0.0000 </r>
        <r>    -0.9797     0.0060     0.0275     0.0000 </r>
        <r>    -0.8791     0.0124     0.0563     0.0000 </r>
        <r>    -0.7786     0.0156     0.0710     0.0000 </r>
        <r>    -0.6781     0.0121     0.0552     0.0000 </r>
        <r>    -0.5776     0.0058     0.0265     0.0000 </r>
        <r>    -0.4771     0.0017     0.0078     0.0000 </r>
        <r>    -0.3766     0.0003     0.0014     0.0000 </r>
        <r>    -0.2761     0.0001     0.0003     0.0000 </r>
        <r>    -0.1756     0.0002     0.0007     0.0000 </r>
        <r>    -0.0750     0.0004     0.0020     0.0000 </r>
        <r>     0.0255     0.0007     0.0038     0.0000 </r>
        <r>     0.1260     0.0008     0.0061     0.0000 </r>
        <r>     0.2265     0.0008     0.0086     0.0000 </r>
        <r>     0.3270     0.0008     0.0092     0.0000 </r>
        <r>     0.4275     0.0007     0.0067     0.0000 </r>
        <r>     0.5280     0.0004     0.0031     0.0000 </r>
        <r>     0.6285     0.0001     0.0009     0.0000 </r>
        <r>     0.7290     0.0000     0.0002     0.0000 </r>
        <r>     0.8296     0.0000     0.0000     0.0000 </r>
        <r>     0.9301     0.0000     0.0000     0.0000 </r>
        <r>     1.0306     0.0000     0.0000     0.0000 </r>
        <r>     1.1311     0.0000     0.0000     0.0000 </r>
        <r>     1.2316     0.0000     0.0000     0.0000 </r>
        <r>     1.3321     0.0000     0.0000     0.0000 </r>
        <r>     1.4326     0.0000     0.0000     0.0000 </r>
        <r>     1.5331     0.0000     0.0000     0.0000 </r>
        <r>     1.6336     0.0000     0.0000     0.0000 </r>
        <r>     1.7342     0.0000     0.0000     0.0000 </r>
        <r>     1.8347     0.0000     0.0000     0.0000 </r>
        <r>     1.9352     0.0000     0.0000     0.0000 </r>
        <r>     2.0357     0.0000     0.0000     0.0000 </r>
        <r>     2.1362     0.0000     0.0000     0.0000 </r>
        <r>     2.2367     0.0000     0.0000     0.0000 </r>
        <r>     2.3372     0.0000     0.0000     0.0000 </r>
       </set>
      </set>
     </set>
    </array>
   </partial>
  </dos>
  <projected>
   <eigenvalues>
    <array>
     <dimension dim="1">band</dimension>
     <dimension dim="2">kpoint</dimension>
     <dimension dim="3">spin</dimension>
     <field>eigene</field>
     <field>occ</field>
     <set>
      <set comment="spin 1">
       <set comment="kpoint 1">
        <r>  -25.8162    1.0000 </r>
        <r>  -13.8516    1.0000 </r>
        <r>   -9.0296    1.0000 </r>
        <r>   -7.2933    1.0000 </r>
        <r>   -0.8308    0.0000 </r>
        <r>    0.0154    0.0000 </r>
        <r>    0.2681    0.0000 </r>
        <r>    0.3188    0.0000 </r>
        <r>    0.3234    0.0000 </r>
        <r>    0.3372    0.0000 </r>
       </set>
      </set>
     </set>
    </array>
   </eigenvalues>
   <array>
    <dimension dim="1">ion</dimension>
    <dimension dim="2">band</dimension>
    <dimension dim="3">kpoint</dimension>
    <dimension dim="4">spin</dimension>
    <field>  s  </field>
    <field>  p  </field>
    <field>  d  </field>
    <set>
     <set comment="spin1">
      <set comment="kpoint 1">
       <set comment="band 1">
        <r>  0.6933  0.0376  0.0000 </r>
        <r>  0.1120  0.0369  0.0000 </r>
        <r>  0.1120  0.0369  0.0000 </r>
       </set>
       <set comment="band 2">
        <r>  0.0000  0.5716  0.0000 </r>
        <r>  0.1872  0.0264  0.0000 </r>
        <r>  0.1872  0.0264  0.0000 </r>
       </set>
       <set comment="band 3">
        <r>  0.0747  0.5770  0.0000 </r>
        <r>  0.0408  0.0181  0.0000 </r>
        <r>  0.0408  0.0181  0.0000 </r>
       </set>
       <set comment="band 4">
        <r>  0.0000  0.6776  0.0000 </r>
        <r>  0.0000  0.0129  0.0000 </r>
        <r>  0.0000  0.0129  0.0000 </r>
       </set>
       <set comment="band 5">
        <r>  0.0254  0.0239  0.0000 </r>
        <r>  0.0028  0.0129  0.0000 </r>
        <r>  0.0028  0.0129  0.0000 </r>
       </set>
       <set comment="band 6">
        <r>  0.0008  0.0011  0.0000 </r>
        <r>  0.0001  0.0005  0.0000 </r>
        <r>  0.0001  0.0005  0.0000 </r>
       </set>
       <set comment="band 7">
        <r>  0.0000  0.0085  0.0000 </r>
        <r>  0.0000  0.0015  0.0000 </r>
        <r>  0.0000  0.0015  0.0000 </r>
       </set>
       <set comment="band 8">
        <r>  0.0000  0.0019  0.0000 </r>
        <r>  0.0000  0.0000  0.0000 </r>
        <r>  0.0000  0.0000  0.0000 </r>
       </set>
       <set comment="band 9">
        <r>  0.0006  0.0002  0.0000 </r>
        <r>  0.0001  0.0000  0.0000 </r>
        <r>  0.0001  0.0000  0.0000 </r>
       </set>
       <set comment="band 10">
        <r>  0.0000  0.0000  0.0000 </r>
        <r>  0.0000  0.0000  0.0000 </r>
        <r>  0.0000  0.0000  0.0000 </r>
       </set>
      </set>
     </set>
    </set>
   </array>
  </projected>
 </calculation>
 <structure name="finalpos" >
  <crystal>
   <varray name="basis" >
    <v>      20.00000000       0.00000000       0.00000000 </v>
    <v>       0.00000000      20.00000000       0.00000000 </v>
    <v>       0.00000000       0.00000000      20.00000000 </v>
   </varray>
   <i name="volume">   8000.00000000 </i>
   <varray name="rec_basis" >
    <v>       0.05000000       0.00000000       0.00000000 </v>
    <v>       0.00000000       0.05000000       0.00000000 </v>
    <v>       0.00000000       0.00000000       0.05000000 </v>
   </varray>
  </crystal>
  <varray name="positions" >
   <v>       0.50000000       0.50000000       0.51251752 </v>
   <v>       0.50000000       0.53808650       0.48628738 </v>
   <v>       0.50000000       0.46191350       0.48628738 </v>
  </varray>
 </structure>
</modeling>
