unknown system                          
           1
    20.000000    0.000000    0.000000
     0.000000   20.000000    0.000000
     0.000000    0.000000   20.000000
   O    H 
     1     2
Direct configuration=     1
   0.50000000  0.50000000  0.51490773
   0.50000000  0.53816195  0.48509227
   0.50000000  0.46183805  0.48509227
Direct configuration=     2
   0.50000000  0.50000000  0.51169281
   0.50000000  0.53806047  0.48669973
   0.50000000  0.46193953  0.48669973
Direct configuration=     3
   0.50000000  0.50000000  0.51308131
   0.50000000  0.53810430  0.48600548
   0.50000000  0.46189570  0.48600548
Direct configuration=     4
   0.50000000  0.50000000  0.51195373
   0.50000000  0.53806871  0.48656927
   0.50000000  0.46193129  0.48656927
Direct configuration=     5
   0.50000000  0.50000000  0.51251752
   0.50000000  0.53808650  0.48628738
   0.50000000  0.46191350  0.48628738
