66
Lattice="11.033086113260774 5.600493888326504e-08 2.5686178914223706e-08 5.516543105132088 9.554933067924482 1.9872236184885125e-07 0.0 0.0 37.15231387033118" Properties=species:S:1:pos:R:3:tags:I:1:initial_magmoms:R:1:forces:R:3 energy=-380.0456848144531 free_energy=-380.0456848144531 stress="0.008410448963758088 -2.5443958187150686e-06 3.974132452647782e-06 -2.5443958187150686e-06 0.008413381992572192 2.2864220734631578e-06 3.974132452647782e-06 2.2864220734631578e-06 0.001355577633069743" pbc="T T T"
Pt      -0.00000001       0.00000000       0.00000000        0       0.00000000      -0.00360495      -0.00208183       0.14302748
Pt       2.75827155       0.00000002       0.00000007        0       0.00000000       0.00350874      -0.00194178       0.14387706
Pt       5.51654309       0.00000006       0.00000007        0       0.00000000       0.00277052      -0.00547903       0.13089406
Pt       8.27481455       0.00000002       0.00000007        0       0.00000000      -0.00276178      -0.00531800       0.13094929
Pt       1.37913578       2.38873328       0.00000009        0       0.00000000       0.00006072       0.00403672       0.14389750
Pt       4.13740732       2.38873326       0.00000010        0       0.00000000       0.00090692       0.00052454       0.12358773
Pt       6.89567885       2.38873330       0.00000010        0       0.00000000       0.00000120      -0.00088377       0.13366917
Pt       9.65395039       2.38873333       0.00000011        0       0.00000000      -0.00101123       0.00038264       0.12359259
Pt       2.75827157       4.77746655       0.00000018        0       0.00000000      -0.00335934       0.00513682       0.13089132
Pt       5.51654311       4.77746655       0.00000018        0       0.00000000      -0.00076698       0.00044253       0.13366827
Pt       8.27481459       4.77746656       0.00000016        0       0.00000000       0.00078007       0.00044809       0.13341168
Pt      11.03308612       4.77746666       0.00000025        0       0.00000000       0.00336373       0.00495187       0.13140425
Pt       4.13740734       7.16619989       0.00000032        0       0.00000000      -0.00598149       0.00026563       0.13094965
Pt       6.89567883       7.16619981       0.00000025        0       0.00000000      -0.00017230      -0.00106205       0.12359288
Pt       9.65395036       7.16619988       0.00000022        0       0.00000000       0.00596828       0.00043585       0.13140315
Pt      12.41222192       7.16619985       0.00000023        0       0.00000000       0.00026503       0.00015460       0.09764525
Pt       1.37913581       0.79624445       2.38855938        1       0.00000000       0.00216574       0.00118040       0.01041710
Pt       4.13740731       0.79624445       2.38855951        1       0.00000000      -0.04335645      -0.03173195      -0.10217151
Pt       6.89567888       0.79624443       2.38855941        1       0.00000000      -0.00016681      -0.00217685      -0.18046516
Pt       9.65395033       0.79624446       2.38855954        1       0.00000000       0.04109196      -0.03018879      -0.10741025
Pt       2.75827161       3.18497767       2.38855947        1       0.00000000      -0.04916470      -0.02168169      -0.10217175
Pt       5.51654314       3.18497767       2.38855952        1       0.00000000      -0.00283853      -0.00164397      -0.17880619
Pt       8.27481457       3.18497770       2.38855940        1       0.00000000       0.00284128      -0.00190449      -0.17784622
Pt      11.03308614       3.18497759       2.38855939        1       0.00000000       0.04937603      -0.02118869      -0.10260215
Pt       4.13740736       5.57371086       2.38855937        1       0.00000000      -0.00196929       0.00094900      -0.18046586
Pt       6.89567888       5.57371105       2.38855956        1       0.00000000      -0.00022493       0.00341394      -0.17784262
Pt       9.65395045       5.57371094       2.38855956        1       0.00000000       0.00207102       0.00119798      -0.18207552
Pt      12.41222194       5.57371108       2.38855958        1       0.00000000      -0.00012616      -0.04919598      -0.11443851
Pt       5.51654310       7.96244423       2.38855960        1       0.00000000      -0.00559402       0.05068290      -0.10741034
Pt       8.27481475       7.96244428       2.38855962        1       0.00000000       0.00633524       0.05335052      -0.10260336
Pt      11.03308616       7.96244430       2.38855961        1       0.00000000      -0.04266394       0.02449131      -0.11443695
Pt      13.79135772       7.96244428       2.38855965        1       0.00000000       0.04121362       0.02379667      -0.11432323
Pt       0.00710545       1.58884407       4.76297109        2       0.00000000      -0.00144397       0.00093642      -0.00039974
Pt       2.75113210       1.58836720       4.76444777        2       0.00000000       0.00197903       0.00114178      -0.00070529
Pt       5.51660903       1.59341000       4.72141407        2       0.00000000      -0.00107075       0.00122806       0.00570449
Pt       8.27506145       1.59323156       4.72170833        2       0.00000000       0.00114922       0.00120265       0.00532645
Pt       1.37936134       3.95787887       4.76291977        2       0.00000000       0.00013069       0.00222728      -0.00497873
Pt       4.13823770       3.98081913       4.72141421        2       0.00000000       0.00053140      -0.00154081       0.00570884
Pt       6.89578427       3.98128366       4.72906644        2       0.00000000      -0.00009504      -0.00005605      -0.00880407
Pt       9.65326109       3.98087171       4.72142315        2       0.00000000      -0.00046782      -0.00136214       0.00556126
Pt       2.75648000       6.37061841       4.71956320        2       0.00000000       0.00170403      -0.00023774      -0.00100631
Pt       5.51731026       6.36979897       4.72170804        2       0.00000000       0.00160946       0.00038736       0.00533135
Pt       8.27416668       6.36953397       4.72142346        2       0.00000000      -0.00141492       0.00028151       0.00555417
Pt      11.03473118       6.37090562       4.71941537        2       0.00000000      -0.00096645      -0.00056217      -0.00093226
Pt       4.15674432       8.76985308       4.76101985        2       0.00000000      -0.00105182      -0.00061232      -0.00478752
Pt       6.89607537       8.76666511       4.76297179        2       0.00000000       0.00007671      -0.00169102      -0.00038372
Pt       9.63384740       8.77055637       4.76291966        2       0.00000000       0.00199194      -0.00100677      -0.00497639
Pt      12.41190053       8.75680515       4.71956337        2       0.00000000       0.00064050       0.00159399      -0.00101052
Pt      -0.09445906      -0.05453549       7.16565038        3       0.00000000      -0.00308278      -0.00178440      -0.00769372
Pt       2.85505650      -0.05496505       7.17541435        3       0.00000000       0.00331762      -0.00173362      -0.01239983
Pt       5.53934121      -0.00039518       7.08102750        3       0.00000000      -0.00065560      -0.00230725      -0.00068727
Pt       8.25314510      -0.00057042       7.08119482        3       0.00000000       0.00152338      -0.00168717      -0.00006425
Pt       1.37992780       2.50003385       7.17541436        3       0.00000000       0.00015364       0.00374013      -0.01240231
Pt       4.14741728       2.39451257       7.07150036        3       0.00000000      -0.00286593      -0.00165455       0.01720899
Pt       6.89647225       2.39306569       7.08693459        3       0.00000000      -0.00018988      -0.00095308      -0.00785607
Pt       9.64580128       2.39368339       7.07201030        3       0.00000000       0.00297583      -0.00111815       0.01609617
Pt       2.76932820       4.79740791       7.08102653        3       0.00000000      -0.00232351       0.00059008      -0.00068364
Pt       5.52069173       4.77598736       7.08693511        3       0.00000000      -0.00092619       0.00031885      -0.00785917
Pt       8.27183702       4.77574803       7.08680549        3       0.00000000       0.00071265       0.00040353      -0.00757307
Pt      11.02318295       4.79707616       7.08037575        3       0.00000000       0.00292566       0.00018278      -0.00038433
Pt       4.12607902       7.14771890       7.08119496        3       0.00000000      -0.00070126       0.00216438      -0.00006822
Pt       6.89589123       7.15666766       7.07201085        3       0.00000000       0.00051570       0.00314154       0.01609653
Pt       9.66598204       7.14781837       7.08037497        3       0.00000000       0.00161725       0.00244552      -0.00038049
Pt      12.41271137       7.16648230       7.08532181        3       0.00000000       0.00046264       0.00026206      -0.00235748
O        1.39358383       0.80458573       8.59030346        0       0.00000000      -0.00140522      -0.00081354      -0.04956660
H        1.42930004       0.82520527       9.57370803        0       0.00000000      -0.00431335      -0.00249017       0.00356340
