66
Lattice="11.033086113260774 5.600493888326504e-08 2.5686178914223706e-08 5.516543105132088 9.554933067924482 1.9872236184885125e-07 0.0 0.0 37.15231387033118" Properties=species:S:1:pos:R:3:tags:I:1:initial_magmoms:R:1:forces:R:3 energy=-377.4580993652344 free_energy=-377.4580993652344 stress="0.009196780447184832 -1.5433066254813202e-06 -3.9642059071066013e-07 -1.5433066254813202e-06 0.00914316673402959 2.7572272693353706e-06 -3.9642059071066013e-07 2.7572272693353706e-06 0.0009702395329114673" pbc="T T T"
Pt      -0.00000001       0.00000000       0.00000000        0       0.00000000      -0.00129539      -0.00023420       0.13016436
Pt       2.75827155       0.00000002       0.00000007        0       0.00000000       0.00120614      -0.00018507       0.13042679
Pt       5.51654309       0.00000006       0.00000007        0       0.00000000      -0.00065075      -0.00061236       0.13546240
Pt       8.27481455       0.00000002       0.00000007        0       0.00000000       0.00066346      -0.00056597       0.13562527
Pt       1.37913578       2.38873328       0.00000009        0       0.00000000       0.00003796      -0.00064654       0.13296515
Pt       4.13740732       2.38873326       0.00000010        0       0.00000000       0.00023505       0.00143794       0.12795788
Pt       6.89567885       2.38873330       0.00000010        0       0.00000000       0.00001766      -0.00007372       0.13009706
Pt       9.65395039       2.38873333       0.00000011        0       0.00000000      -0.00029874       0.00141683       0.12786227
Pt       2.75827157       4.77746655       0.00000018        0       0.00000000      -0.00036208       0.00090323       0.13185301
Pt       5.51654311       4.77746655       0.00000018        0       0.00000000       0.00009042      -0.00033408       0.13211986
Pt       8.27481459       4.77746656       0.00000016        0       0.00000000      -0.00006960      -0.00036086       0.13185421
Pt      11.03308612       4.77746666       0.00000025        0       0.00000000       0.00033079       0.00075663       0.13219607
Pt       4.13740734       7.16619989       0.00000032        0       0.00000000       0.00063048       0.00177939       0.13629535
Pt       6.89567883       7.16619981       0.00000025        0       0.00000000      -0.00004608      -0.00220277       0.12257880
Pt       9.65395036       7.16619988       0.00000022        0       0.00000000      -0.00066941       0.00181932       0.13631132
Pt      12.41222192       7.16619985       0.00000023        0       0.00000000       0.00005005      -0.00237448       0.12186384
Pt       1.37913581       0.79624445       2.38855938        1       0.00000000       0.00083588       0.00691182      -0.16265947
Pt       4.13740731       0.79624445       2.38855951        1       0.00000000       0.00082737      -0.01429405      -0.14061938
Pt       6.89567888       0.79624443       2.38855941        1       0.00000000       0.00013270      -0.00613258      -0.15693970
Pt       9.65395033       0.79624446       2.38855954        1       0.00000000      -0.00116303      -0.01439074      -0.14135493
Pt       2.75827161       3.18497767       2.38855947        1       0.00000000      -0.00139261      -0.00200197      -0.14416936
Pt       5.51654314       3.18497767       2.38855952        1       0.00000000      -0.00153731       0.00146796      -0.14914100
Pt       8.27481457       3.18497770       2.38855940        1       0.00000000       0.00151030       0.00121704      -0.14848666
Pt      11.03308614       3.18497759       2.38855939        1       0.00000000       0.00170068      -0.00082875      -0.14597607
Pt       4.13740736       5.57371086       2.38855937        1       0.00000000      -0.00326725       0.00081466      -0.14685918
Pt       6.89567888       5.57371105       2.38855956        1       0.00000000      -0.00024843      -0.00170662      -0.15669304
Pt       9.65395045       5.57371094       2.38855956        1       0.00000000       0.00367245       0.00089473      -0.14796132
Pt      12.41222194       5.57371108       2.38855958        1       0.00000000       0.00015421      -0.00194641      -0.12778950
Pt       5.51654310       7.96244423       2.38855960        1       0.00000000      -0.02241402       0.00188975      -0.14986904
Pt       8.27481475       7.96244428       2.38855962        1       0.00000000       0.02277226       0.00216682      -0.15040942
Pt      11.03308616       7.96244430       2.38855961        1       0.00000000      -0.01481341       0.00943885      -0.11780515
Pt      13.79135772       7.96244428       2.38855965        1       0.00000000       0.01491038       0.00935513      -0.11726573
Pt      -0.00502470       1.59147361       4.73169050        2       0.00000000       0.00296246       0.00608413      -0.00728402
Pt       2.76340052       1.59079566       4.73258327        2       0.00000000      -0.00310568       0.00672329      -0.00885370
Pt       5.52155136       1.59540951       4.72901803        2       0.00000000      -0.00603726      -0.00446919       0.00295585
Pt       8.27025905       1.59513295       4.72923222        2       0.00000000       0.00549970      -0.00414764       0.00305133
Pt       1.37921794       3.97829243       4.73311430        2       0.00000000      -0.00001376       0.01594971       0.00188230
Pt       4.13724182       3.98179348       4.73065093        2       0.00000000      -0.00575146       0.00863228       0.00153205
Pt       6.89570758       3.97992786       4.73183239        2       0.00000000      -0.00036216       0.00267232       0.00324149
Pt       9.65416088       3.98183582       4.73065427        2       0.00000000       0.00548010       0.00803089       0.00176282
Pt       2.75792807       6.37126607       4.73029198        2       0.00000000      -0.00877949      -0.00176503      -0.00467269
Pt       5.51657234       6.36469800       4.72944146        2       0.00000000      -0.00919353       0.00133923       0.00447367
Pt       8.27483215       6.36422866       4.72914260        2       0.00000000       0.00821797       0.00182995       0.00455759
Pt      11.03340580       6.37135395       4.73022189        2       0.00000000       0.00924239      -0.00242122      -0.00438526
Pt       4.14372200       8.76357122       4.74678517        2       0.00000000      -0.01311445      -0.00711216      -0.00284605
Pt       6.89589680       8.75460709       4.72329479        2       0.00000000      -0.00054140      -0.00198898      -0.01542167
Pt       9.64759500       8.76357997       4.74712906        2       0.00000000       0.01266089      -0.00707094      -0.00347377
Pt      12.41222505       8.75805307       4.72947297        2       0.00000000       0.00057130      -0.00721524      -0.00288431
Pt       0.00547880       0.00220921       7.06852363        3       0.00000000       0.00439334       0.00114669       0.03579804
Pt       2.75123956       0.00327877       7.06680125        3       0.00000000      -0.00541884       0.00046557       0.03738075
Pt       5.52037354       0.00290001       7.08642586        3       0.00000000       0.00947140       0.00551876       0.00721011
Pt       8.27055602       0.00272542       7.08691489        3       0.00000000      -0.00898496       0.00531504       0.00638840
Pt       1.37865538       2.39572856       7.07601654        3       0.00000000      -0.00092672       0.00604670       0.02039230
Pt       4.14103452       2.39369344       7.08496795        3       0.00000000       0.01043114       0.00605504       0.01163822
Pt       6.89551425       2.38937200       7.09365184        3       0.00000000      -0.00015067       0.00091382       0.00122997
Pt       9.64987949       2.39352209       7.08512799        3       0.00000000      -0.00981669       0.00550197       0.01072058
Pt       2.75952379       4.78063599       7.08944236        3       0.00000000      -0.00315088       0.00141566      -0.00147465
Pt       5.51640792       4.77669912       7.09003922        3       0.00000000       0.00208326      -0.00294266      -0.00013092
Pt       8.27464324       4.77673191       7.08997951        3       0.00000000      -0.00244983      -0.00298915       0.00019270
Pt      11.03129326       4.78071790       7.08940467        3       0.00000000       0.00313500       0.00115401      -0.00161570
Pt       4.13222761       7.16009856       7.08665297        3       0.00000000      -0.00121705      -0.00910799       0.00839227
Pt       6.89529063       7.16467495       7.07198539        3       0.00000000       0.00012714      -0.01126705       0.02080753
Pt       9.65818670       7.16054266       7.08607311        3       0.00000000       0.00076692      -0.00972017       0.00910130
Pt      12.41183710       7.16846580       7.08932344        3       0.00000000      -0.00000699      -0.00371121       0.00188282
H        1.42155200      -0.00639445       9.22755190        0       0.00000000       0.00512726      -0.00191795       0.03586343
H        1.41000789      -0.00217168       9.98292719        0       0.00000000      -0.00269828      -0.00032745       0.03095269
