  36  36   1   0
  0.2571354E+02  0.5536700E-09  0.5747300E-09  0.2909039E-08  0.1500000E-15
  1.000000000000000E-004
  CAR 
 unknown system                          
      6.71861404    -46.03305188  301      1.41982400      1.00000000
    -46.033  0.0000E+00  0.0000E+00  0.0000E+00  0.0000E+00
    -45.857  0.0000E+00  0.0000E+00  0.0000E+00  0.0000E+00
    -45.681  0.0000E+00  0.0000E+00  0.0000E+00  0.0000E+00
    -45.506  0.0000E+00  0.0000E+00  0.0000E+00  0.0000E+00
    -45.330  0.0000E+00  0.0000E+00  0.0000E+00  0.0000E+00
    -45.154  0.0000E+00  0.0000E+00  0.0000E+00  0.0000E+00
    -44.978  0.0000E+00  0.0000E+00  0.0000E+00  0.0000E+00
    -44.802  0.0000E+00  0.6314E-16  0.0000E+00  0.1110E-16
    -44.626  0.1648E-13  0.1374E-11  0.2898E-14  0.2416E-12
    -44.451  0.1277E-09  0.4651E-08  0.2246E-10  0.8180E-09
    -44.275  0.2226E-06  0.3490E-05  0.3917E-07  0.6145E-06
    -44.099  0.8966E-04  0.5911E-03  0.1580E-04  0.1046E-03
    -43.923  0.8751E-02  0.2323E-01  0.1555E-02  0.4189E-02
    -43.747  0.2243E+00  0.2202E+00  0.4099E-01  0.4291E-01
    -43.571  0.1700E+01  0.5346E+00  0.3400E+00  0.1369E+00
    -43.395  0.4430E+01  0.4961E+00  0.1119E+01  0.2241E+00
    -43.220  0.4690E+01  0.8538E+00  0.1944E+01  0.3743E+00
    -43.044  0.2491E+01  0.1397E+01  0.2382E+01  0.6200E+00
    -42.868  0.1255E+01  0.1597E+01  0.2602E+01  0.9008E+00
    -42.692  0.8421E+00  0.1985E+01  0.2750E+01  0.1250E+01
    -42.516  0.4681E+00  0.1970E+01  0.2833E+01  0.1596E+01
    -42.340  0.8903E+00  0.1478E+01  0.2989E+01  0.1856E+01
    -42.165  0.1072E+01  0.9154E+00  0.3178E+01  0.2017E+01
    -41.989  0.7398E+00  0.8207E+00  0.3308E+01  0.2161E+01
    -41.813  0.4996E+00  0.8831E+00  0.3396E+01  0.2317E+01
    -41.637  0.5420E+00  0.4104E+00  0.3491E+01  0.2389E+01
    -41.461  0.1027E+01  0.6161E-01  0.3671E+01  0.2400E+01
    -41.285  0.1135E+01  0.1839E-01  0.3871E+01  0.2403E+01
    -41.110  0.9078E+00  0.2231E+00  0.4031E+01  0.2442E+01
    -40.934  0.9831E+00  0.1046E+01  0.4203E+01  0.2626E+01
    -40.758  0.9522E+00  0.2548E+01  0.4371E+01  0.3074E+01
    -40.582  0.7431E+00  0.4125E+01  0.4502E+01  0.3799E+01
    -40.406  0.6761E+00  0.3737E+01  0.4620E+01  0.4457E+01
    -40.230  0.6297E+00  0.1619E+01  0.4731E+01  0.4741E+01
    -40.055  0.3365E+00  0.3111E+00  0.4790E+01  0.4796E+01
    -39.879  0.5311E-01  0.2242E-01  0.4800E+01  0.4800E+01
    -39.703  0.2081E-02  0.4734E-03  0.4800E+01  0.4800E+01
    -39.527  0.1914E-04  0.2482E-05  0.4800E+01  0.4800E+01
    -39.351  0.4002E-07  0.2998E-08  0.4800E+01  0.4800E+01
    -39.175  0.1864E-10  0.8072E-12  0.4800E+01  0.4800E+01
    -38.999  0.1894E-14  0.0000E+00  0.4800E+01  0.4800E+01
    -38.824  0.0000E+00  0.0000E+00  0.4800E+01  0.4800E+01
    -38.648  0.0000E+00  0.0000E+00  0.4800E+01  0.4800E+01
    -38.472  0.0000E+00  0.0000E+00  0.4800E+01  0.4800E+01
    -38.296  0.0000E+00  0.0000E+00  0.4800E+01  0.4800E+01
    -38.120  0.0000E+00  0.0000E+00  0.4800E+01  0.4800E+01
    -37.944  0.0000E+00  0.0000E+00  0.4800E+01  0.4800E+01
    -37.769  0.0000E+00  0.0000E+00  0.4800E+01  0.4800E+01
    -37.593  0.0000E+00  0.0000E+00  0.4800E+01  0.4800E+01
    -37.417  0.0000E+00  0.0000E+00  0.4800E+01  0.4800E+01
    -37.241  0.0000E+00  0.0000E+00  0.4800E+01  0.4800E+01
    -37.065  0.0000E+00  0.0000E+00  0.4800E+01  0.4800E+01
    -36.889  0.0000E+00  0.0000E+00  0.4800E+01  0.4800E+01
    -36.714  0.0000E+00  0.0000E+00  0.4800E+01  0.4800E+01
    -36.538  0.0000E+00  0.0000E+00  0.4800E+01  0.4800E+01
    -36.362  0.0000E+00  0.0000E+00  0.4800E+01  0.4800E+01
    -36.186  0.0000E+00  0.0000E+00  0.4800E+01  0.4800E+01
    -36.010  0.0000E+00  0.0000E+00  0.4800E+01  0.4800E+01
    -35.834  0.0000E+00  0.0000E+00  0.4800E+01  0.4800E+01
    -35.659  0.0000E+00  0.0000E+00  0.4800E+01  0.4800E+01
    -35.483  0.0000E+00  0.0000E+00  0.4800E+01  0.4800E+01
    -35.307  0.0000E+00  0.0000E+00  0.4800E+01  0.4800E+01
    -35.131  0.0000E+00  0.0000E+00  0.4800E+01  0.4800E+01
    -34.955  0.0000E+00  0.0000E+00  0.4800E+01  0.4800E+01
    -34.779  0.0000E+00  0.0000E+00  0.4800E+01  0.4800E+01
    -34.604  0.0000E+00  0.0000E+00  0.4800E+01  0.4800E+01
    -34.428  0.0000E+00  0.0000E+00  0.4800E+01  0.4800E+01
    -34.252  0.0000E+00  0.0000E+00  0.4800E+01  0.4800E+01
    -34.076  0.0000E+00  0.0000E+00  0.4800E+01  0.4800E+01
    -33.900  0.0000E+00  0.0000E+00  0.4800E+01  0.4800E+01
    -33.724  0.0000E+00  0.0000E+00  0.4800E+01  0.4800E+01
    -33.548  0.0000E+00  0.0000E+00  0.4800E+01  0.4800E+01
    -33.373  0.0000E+00  0.0000E+00  0.4800E+01  0.4800E+01
    -33.197  0.0000E+00  0.0000E+00  0.4800E+01  0.4800E+01
    -33.021  0.0000E+00  0.0000E+00  0.4800E+01  0.4800E+01
    -32.845  0.0000E+00  0.0000E+00  0.4800E+01  0.4800E+01
    -32.669  0.0000E+00  0.0000E+00  0.4800E+01  0.4800E+01
    -32.493  0.0000E+00  0.0000E+00  0.4800E+01  0.4800E+01
    -32.318  0.0000E+00  0.0000E+00  0.4800E+01  0.4800E+01
    -32.142  0.0000E+00  0.0000E+00  0.4800E+01  0.4800E+01
    -31.966  0.1869E-13  0.1174E-13  0.4800E+01  0.4800E+01
    -31.790  0.1286E-09  0.8680E-10  0.4800E+01  0.4800E+01
    -31.614  0.1962E-06  0.1424E-06  0.4800E+01  0.4800E+01
    -31.438  0.6782E-04  0.5288E-04  0.4800E+01  0.4800E+01
    -31.263  0.5523E-02  0.4613E-02  0.4801E+01  0.4801E+01
    -31.087  0.1131E+00  0.1008E+00  0.4821E+01  0.4819E+01
    -30.911  0.6504E+00  0.6124E+00  0.4935E+01  0.4926E+01
    -30.735  0.1310E+01  0.1278E+01  0.5166E+01  0.5151E+01
    -30.559  0.1391E+01  0.1390E+01  0.5410E+01  0.5395E+01
    -30.383  0.8875E+00  0.9392E+00  0.5566E+01  0.5560E+01
    -30.208  0.4945E+00  0.5367E+00  0.5653E+01  0.5655E+01
    -30.032  0.8661E+00  0.8790E+00  0.5805E+01  0.5809E+01
    -29.856  0.8231E+00  0.8119E+00  0.5950E+01  0.5952E+01
    -29.680  0.2588E+00  0.2492E+00  0.5996E+01  0.5996E+01
    -29.504  0.2383E-01  0.2234E-01  0.6000E+01  0.6000E+01
    -29.328  0.5688E-03  0.5183E-03  0.6000E+01  0.6000E+01
    -29.153  0.3242E-05  0.2866E-05  0.6000E+01  0.6000E+01
    -28.977  0.4210E-08  0.3609E-08  0.6000E+01  0.6000E+01
    -28.801  0.1216E-11  0.1011E-11  0.6000E+01  0.6000E+01
    -28.625  0.0000E+00  0.0000E+00  0.6000E+01  0.6000E+01
    -28.449  0.0000E+00  0.0000E+00  0.6000E+01  0.6000E+01
    -28.273  0.0000E+00  0.0000E+00  0.6000E+01  0.6000E+01
    -28.097  0.0000E+00  0.0000E+00  0.6000E+01  0.6000E+01
    -27.922  0.0000E+00  0.0000E+00  0.6000E+01  0.6000E+01
    -27.746  0.0000E+00  0.0000E+00  0.6000E+01  0.6000E+01
    -27.570  0.0000E+00  0.0000E+00  0.6000E+01  0.6000E+01
    -27.394  0.0000E+00  0.0000E+00  0.6000E+01  0.6000E+01
    -27.218  0.0000E+00  0.0000E+00  0.6000E+01  0.6000E+01
    -27.042  0.0000E+00  0.0000E+00  0.6000E+01  0.6000E+01
    -26.867  0.0000E+00  0.0000E+00  0.6000E+01  0.6000E+01
    -26.691  0.0000E+00  0.0000E+00  0.6000E+01  0.6000E+01
    -26.515  0.0000E+00  0.0000E+00  0.6000E+01  0.6000E+01
    -26.339  0.0000E+00  0.0000E+00  0.6000E+01  0.6000E+01
    -26.163  0.0000E+00  0.0000E+00  0.6000E+01  0.6000E+01
    -25.987  0.0000E+00  0.0000E+00  0.6000E+01  0.6000E+01
    -25.812  0.0000E+00  0.0000E+00  0.6000E+01  0.6000E+01
    -25.636  0.0000E+00  0.0000E+00  0.6000E+01  0.6000E+01
    -25.460  0.0000E+00  0.0000E+00  0.6000E+01  0.6000E+01
    -25.284  0.0000E+00  0.0000E+00  0.6000E+01  0.6000E+01
    -25.108  0.0000E+00  0.0000E+00  0.6000E+01  0.6000E+01
    -24.932  0.0000E+00  0.0000E+00  0.6000E+01  0.6000E+01
    -24.757  0.0000E+00  0.0000E+00  0.6000E+01  0.6000E+01
    -24.581  0.0000E+00  0.0000E+00  0.6000E+01  0.6000E+01
    -24.405  0.0000E+00  0.0000E+00  0.6000E+01  0.6000E+01
    -24.229  0.0000E+00  0.0000E+00  0.6000E+01  0.6000E+01
    -24.053  0.0000E+00  0.0000E+00  0.6000E+01  0.6000E+01
    -23.877  0.0000E+00  0.0000E+00  0.6000E+01  0.6000E+01
    -23.702  0.0000E+00  0.0000E+00  0.6000E+01  0.6000E+01
    -23.526  0.0000E+00  0.0000E+00  0.6000E+01  0.6000E+01
    -23.350  0.0000E+00  0.0000E+00  0.6000E+01  0.6000E+01
    -23.174  0.0000E+00  0.0000E+00  0.6000E+01  0.6000E+01
    -22.998  0.0000E+00  0.0000E+00  0.6000E+01  0.6000E+01
    -22.822  0.0000E+00  0.0000E+00  0.6000E+01  0.6000E+01
    -22.646  0.0000E+00  0.0000E+00  0.6000E+01  0.6000E+01
    -22.471  0.0000E+00  0.0000E+00  0.6000E+01  0.6000E+01
    -22.295  0.0000E+00  0.0000E+00  0.6000E+01  0.6000E+01
    -22.119  0.0000E+00  0.0000E+00  0.6000E+01  0.6000E+01
    -21.943  0.0000E+00  0.0000E+00  0.6000E+01  0.6000E+01
    -21.767  0.0000E+00  0.0000E+00  0.6000E+01  0.6000E+01
    -21.591  0.0000E+00  0.0000E+00  0.6000E+01  0.6000E+01
    -21.416  0.0000E+00  0.0000E+00  0.6000E+01  0.6000E+01
    -21.240  0.0000E+00  0.0000E+00  0.6000E+01  0.6000E+01
    -21.064  0.0000E+00  0.0000E+00  0.6000E+01  0.6000E+01
    -20.888  0.0000E+00  0.0000E+00  0.6000E+01  0.6000E+01
    -20.712  0.0000E+00  0.0000E+00  0.6000E+01  0.6000E+01
    -20.536  0.0000E+00  0.0000E+00  0.6000E+01  0.6000E+01
    -20.361  0.0000E+00  0.0000E+00  0.6000E+01  0.6000E+01
    -20.185  0.0000E+00  0.0000E+00  0.6000E+01  0.6000E+01
    -20.009  0.0000E+00  0.0000E+00  0.6000E+01  0.6000E+01
    -19.833  0.0000E+00  0.0000E+00  0.6000E+01  0.6000E+01
    -19.657  0.0000E+00  0.0000E+00  0.6000E+01  0.6000E+01
    -19.481  0.0000E+00  0.0000E+00  0.6000E+01  0.6000E+01
    -19.306  0.1527E-12  0.1107E-12  0.6000E+01  0.6000E+01
    -19.130  0.7458E-09  0.5698E-09  0.6000E+01  0.6000E+01
    -18.954  0.8051E-06  0.6480E-06  0.6000E+01  0.6000E+01
    -18.778  0.1952E-03  0.1654E-03  0.6000E+01  0.6000E+01
    -18.602  0.1090E-01  0.9708E-02  0.6002E+01  0.6002E+01
    -18.426  0.1456E+00  0.1360E+00  0.6028E+01  0.6026E+01
    -18.251  0.5078E+00  0.4868E+00  0.6117E+01  0.6111E+01
    -18.075  0.7507E+00  0.6700E+00  0.6249E+01  0.6229E+01
    -17.899  0.1373E+01  0.1292E+01  0.6490E+01  0.6456E+01
    -17.723  0.2005E+01  0.2079E+01  0.6843E+01  0.6822E+01
    -17.547  0.2332E+01  0.2279E+01  0.7253E+01  0.7223E+01
    -17.371  0.2221E+01  0.2186E+01  0.7644E+01  0.7607E+01
    -17.195  0.1968E+01  0.1951E+01  0.7990E+01  0.7950E+01
    -17.020  0.2456E+01  0.2310E+01  0.8422E+01  0.8356E+01
    -16.844  0.2771E+01  0.2723E+01  0.8909E+01  0.8835E+01
    -16.668  0.2019E+01  0.2063E+01  0.9264E+01  0.9198E+01
    -16.492  0.1529E+01  0.1526E+01  0.9533E+01  0.9466E+01
    -16.316  0.1098E+01  0.1263E+01  0.9726E+01  0.9688E+01
    -16.140  0.7323E+00  0.9056E+00  0.9855E+01  0.9847E+01
    -15.965  0.8318E+00  0.8708E+00  0.1000E+02  0.1000E+02
    -15.789  0.7720E+00  0.7662E+00  0.1014E+02  0.1013E+02
    -15.613  0.3183E+00  0.3247E+00  0.1019E+02  0.1019E+02
    -15.437  0.4112E-01  0.4346E-01  0.1020E+02  0.1020E+02
    -15.261  0.1373E-02  0.1498E-02  0.1020E+02  0.1020E+02
    -15.085  0.1110E-02  0.9159E-03  0.1020E+02  0.1020E+02
    -14.910  0.4556E-01  0.3971E-01  0.1021E+02  0.1021E+02
    -14.734  0.4801E+00  0.4411E+00  0.1029E+02  0.1028E+02
    -14.558  0.1512E+01  0.1438E+01  0.1056E+02  0.1054E+02
    -14.382  0.2112E+01  0.2027E+01  0.1093E+02  0.1089E+02
    -14.206  0.2198E+01  0.2203E+01  0.1132E+02  0.1128E+02
    -14.030  0.2277E+01  0.2324E+01  0.1172E+02  0.1169E+02
    -13.855  0.2410E+01  0.2461E+01  0.1214E+02  0.1212E+02
    -13.679  0.2503E+01  0.2518E+01  0.1258E+02  0.1257E+02
    -13.503  0.2399E+01  0.2415E+01  0.1300E+02  0.1299E+02
    -13.327  0.1271E+01  0.1330E+01  0.1323E+02  0.1322E+02
    -13.151  0.9714E+00  0.9890E+00  0.1340E+02  0.1340E+02
    -12.975  0.1026E+01  0.1026E+01  0.1358E+02  0.1358E+02
    -12.800  0.7833E+00  0.7859E+00  0.1371E+02  0.1372E+02
    -12.624  0.4066E+00  0.4016E+00  0.1379E+02  0.1379E+02
    -12.448  0.7382E-01  0.7141E-01  0.1380E+02  0.1380E+02
    -12.272  0.3469E-02  0.3287E-02  0.1380E+02  0.1380E+02
    -12.096  0.3869E-04  0.3589E-04  0.1380E+02  0.1380E+02
    -11.920  0.9853E-07  0.8948E-07  0.1380E+02  0.1380E+02
    -11.744  0.5601E-10  0.4978E-10  0.1380E+02  0.1380E+02
    -11.569  0.7072E-14  0.6061E-14  0.1380E+02  0.1380E+02
    -11.393  0.0000E+00  0.0000E+00  0.1380E+02  0.1380E+02
    -11.217  0.0000E+00  0.0000E+00  0.1380E+02  0.1380E+02
    -11.041  0.0000E+00  0.0000E+00  0.1380E+02  0.1380E+02
    -10.865  0.0000E+00  0.0000E+00  0.1380E+02  0.1380E+02
    -10.689  0.0000E+00  0.0000E+00  0.1380E+02  0.1380E+02
    -10.514  0.0000E+00  0.0000E+00  0.1380E+02  0.1380E+02
    -10.338  0.0000E+00  0.0000E+00  0.1380E+02  0.1380E+02
    -10.162  0.0000E+00  0.0000E+00  0.1380E+02  0.1380E+02
     -9.986  0.0000E+00  0.0000E+00  0.1380E+02  0.1380E+02
     -9.810  0.0000E+00  0.0000E+00  0.1380E+02  0.1380E+02
     -9.634  0.0000E+00  0.0000E+00  0.1380E+02  0.1380E+02
     -9.459  0.0000E+00  0.0000E+00  0.1380E+02  0.1380E+02
     -9.283  0.0000E+00  0.0000E+00  0.1380E+02  0.1380E+02
     -9.107  0.0000E+00  0.0000E+00  0.1380E+02  0.1380E+02
     -8.931  0.0000E+00  0.0000E+00  0.1380E+02  0.1380E+02
     -8.755  0.0000E+00  0.0000E+00  0.1380E+02  0.1380E+02
     -8.579  0.0000E+00  0.0000E+00  0.1380E+02  0.1380E+02
     -8.404  0.0000E+00  0.0000E+00  0.1380E+02  0.1380E+02
     -8.228  0.0000E+00  0.0000E+00  0.1380E+02  0.1380E+02
     -8.052  0.0000E+00  0.0000E+00  0.1380E+02  0.1380E+02
     -7.876  0.0000E+00  0.0000E+00  0.1380E+02  0.1380E+02
     -7.700  0.0000E+00  0.0000E+00  0.1380E+02  0.1380E+02
     -7.524  0.0000E+00  0.0000E+00  0.1380E+02  0.1380E+02
     -7.348  0.0000E+00  0.0000E+00  0.1380E+02  0.1380E+02
     -7.173  0.0000E+00  0.0000E+00  0.1380E+02  0.1380E+02
     -6.997  0.0000E+00  0.0000E+00  0.1380E+02  0.1380E+02
     -6.821  0.0000E+00  0.0000E+00  0.1380E+02  0.1380E+02
     -6.645  0.0000E+00  0.0000E+00  0.1380E+02  0.1380E+02
     -6.469  0.1578E-14  0.0000E+00  0.1380E+02  0.1380E+02
     -6.293  0.1604E-10  0.1528E-13  0.1380E+02  0.1380E+02
     -6.118  0.3549E-07  0.1081E-09  0.1380E+02  0.1380E+02
     -5.942  0.1758E-04  0.1689E-06  0.1380E+02  0.1380E+02
     -5.766  0.2011E-02  0.5929E-04  0.1380E+02  0.1380E+02
     -5.590  0.5625E-01  0.4838E-02  0.1381E+02  0.1380E+02
     -5.414  0.4266E+00  0.9782E-01  0.1389E+02  0.1382E+02
     -5.238  0.1053E+01  0.5508E+00  0.1407E+02  0.1391E+02
     -5.063  0.1194E+01  0.1062E+01  0.1428E+02  0.1410E+02
     -4.887  0.1020E+01  0.1065E+01  0.1446E+02  0.1429E+02
     -4.711  0.9511E+00  0.9813E+00  0.1463E+02  0.1446E+02
     -4.535  0.1507E+01  0.1175E+01  0.1489E+02  0.1467E+02
     -4.359  0.2050E+01  0.1715E+01  0.1525E+02  0.1497E+02
     -4.183  0.2390E+01  0.1733E+01  0.1567E+02  0.1527E+02
     -4.008  0.2637E+01  0.2068E+01  0.1614E+02  0.1564E+02
     -3.832  0.3114E+01  0.3107E+01  0.1668E+02  0.1618E+02
     -3.656  0.3950E+01  0.3935E+01  0.1738E+02  0.1688E+02
     -3.480  0.4144E+01  0.3771E+01  0.1811E+02  0.1754E+02
     -3.304  0.3030E+01  0.3436E+01  0.1864E+02  0.1814E+02
     -3.128  0.2368E+01  0.3604E+01  0.1906E+02  0.1878E+02
     -2.953  0.3041E+01  0.3653E+01  0.1959E+02  0.1942E+02
     -2.777  0.3472E+01  0.3564E+01  0.2020E+02  0.2005E+02
     -2.601  0.3345E+01  0.3047E+01  0.2079E+02  0.2058E+02
     -2.425  0.2487E+01  0.2306E+01  0.2123E+02  0.2099E+02
     -2.249  0.1819E+01  0.2139E+01  0.2155E+02  0.2136E+02
     -2.073  0.2358E+01  0.2402E+01  0.2196E+02  0.2179E+02
     -1.897  0.2895E+01  0.2844E+01  0.2247E+02  0.2229E+02
     -1.722  0.3358E+01  0.3184E+01  0.2306E+02  0.2285E+02
     -1.546  0.3429E+01  0.3217E+01  0.2366E+02  0.2341E+02
     -1.370  0.3176E+01  0.3180E+01  0.2422E+02  0.2397E+02
     -1.194  0.3096E+01  0.2707E+01  0.2477E+02  0.2445E+02
     -1.018  0.2641E+01  0.2686E+01  0.2523E+02  0.2492E+02
     -0.842  0.1737E+01  0.2217E+01  0.2554E+02  0.2531E+02
     -0.667  0.1081E+01  0.1238E+01  0.2573E+02  0.2553E+02
     -0.491  0.1217E+01  0.1162E+01  0.2594E+02  0.2573E+02
     -0.315  0.1046E+01  0.1244E+01  0.2613E+02  0.2595E+02
     -0.139  0.1012E+01  0.1080E+01  0.2630E+02  0.2614E+02
      0.037  0.1279E+01  0.9453E+00  0.2653E+02  0.2631E+02
      0.213  0.1519E+01  0.1018E+01  0.2679E+02  0.2648E+02
      0.388  0.1774E+01  0.1629E+01  0.2711E+02  0.2677E+02
      0.564  0.1959E+01  0.2264E+01  0.2745E+02  0.2717E+02
      0.740  0.1981E+01  0.2214E+01  0.2780E+02  0.2756E+02
      0.916  0.2250E+01  0.1746E+01  0.2820E+02  0.2787E+02
      1.092  0.2824E+01  0.1285E+01  0.2869E+02  0.2809E+02
      1.268  0.2530E+01  0.6754E+00  0.2914E+02  0.2821E+02
      1.443  0.2376E+01  0.6253E+00  0.2955E+02  0.2832E+02
      1.619  0.1998E+01  0.8956E+00  0.2991E+02  0.2848E+02
      1.795  0.1287E+01  0.1229E+01  0.3013E+02  0.2869E+02
      1.971  0.1646E+01  0.1515E+01  0.3042E+02  0.2896E+02
      2.147  0.1431E+01  0.1896E+01  0.3067E+02  0.2929E+02
      2.323  0.1513E+01  0.1976E+01  0.3094E+02  0.2964E+02
      2.498  0.2281E+01  0.1684E+01  0.3134E+02  0.2994E+02
      2.674  0.2710E+01  0.1756E+01  0.3182E+02  0.3025E+02
      2.850  0.3100E+01  0.2150E+01  0.3236E+02  0.3062E+02
      3.026  0.2929E+01  0.1772E+01  0.3288E+02  0.3094E+02
      3.202  0.1883E+01  0.1611E+01  0.3321E+02  0.3122E+02
      3.378  0.9169E+00  0.2071E+01  0.3337E+02  0.3158E+02
      3.554  0.3314E+00  0.2719E+01  0.3343E+02  0.3206E+02
      3.729  0.7832E+00  0.3189E+01  0.3357E+02  0.3262E+02
      3.905  0.1977E+01  0.3804E+01  0.3391E+02  0.3329E+02
      4.081  0.3842E+01  0.4688E+01  0.3459E+02  0.3412E+02
      4.257  0.4736E+01  0.5683E+01  0.3542E+02  0.3511E+02
      4.433  0.2701E+01  0.3948E+01  0.3590E+02  0.3581E+02
      4.609  0.5547E+00  0.1009E+01  0.3599E+02  0.3599E+02
      4.784  0.3496E-01  0.7530E-01  0.3600E+02  0.3600E+02
      4.960  0.6090E-03  0.1461E-02  0.3600E+02  0.3600E+02
      5.136  0.2705E-05  0.6944E-05  0.3600E+02  0.3600E+02
      5.312  0.2883E-08  0.7790E-08  0.3600E+02  0.3600E+02
      5.488  0.7077E-12  0.2014E-11  0.3600E+02  0.3600E+02
      5.664  0.0000E+00  0.0000E+00  0.3600E+02  0.3600E+02
      5.839  0.0000E+00  0.0000E+00  0.3600E+02  0.3600E+02
      6.015  0.0000E+00  0.0000E+00  0.3600E+02  0.3600E+02
      6.191  0.0000E+00  0.0000E+00  0.3600E+02  0.3600E+02
      6.367  0.0000E+00  0.0000E+00  0.3600E+02  0.3600E+02
      6.543  0.0000E+00  0.0000E+00  0.3600E+02  0.3600E+02
      6.719  0.0000E+00  0.0000E+00  0.3600E+02  0.3600E+02
      6.71861404    -46.03305188  301      1.41982400      1.00000000
    -46.033  0.0000E+00  0.0000E+00  0.0000E+00  0.0000E+00  0.0000E+00  0.0000E+00  0.0000E+00  0.0000E+00
    -45.857  0.0000E+00  0.0000E+00  0.0000E+00  0.0000E+00  0.0000E+00  0.0000E+00  0.0000E+00  0.0000E+00
    -45.681  0.0000E+00  0.0000E+00  0.0000E+00  0.0000E+00  0.0000E+00  0.0000E+00  0.0000E+00  0.0000E+00
    -45.506  0.0000E+00  0.0000E+00  0.0000E+00  0.0000E+00  0.0000E+00  0.0000E+00  0.0000E+00  0.0000E+00
    -45.330  0.0000E+00  0.0000E+00  0.0000E+00  0.0000E+00  0.0000E+00  0.0000E+00  0.0000E+00  0.0000E+00
    -45.154  0.0000E+00  0.0000E+00  0.0000E+00  0.0000E+00  0.0000E+00  0.0000E+00  0.0000E+00  0.0000E+00
    -44.978  0.0000E+00  0.0000E+00  0.0000E+00  0.0000E+00  0.0000E+00  0.0000E+00  0.0000E+00  0.0000E+00
    -44.802  0.0000E+00  0.1634E-25  0.0000E+00  0.7157E-25  0.0000E+00  0.1651E-25  0.0000E+00  0.0000E+00
    -44.626  0.2256E-23  0.3556E-21  0.2172E-22  0.1557E-20  0.1326E-23  0.3593E-21  0.0000E+00  0.0000E+00
    -44.451  0.1702E-19  0.1204E-17  0.1637E-18  0.5272E-17  0.1008E-19  0.1216E-17  0.0000E+00  0.0000E+00
    -44.275  0.2889E-16  0.9033E-15  0.3002E-15  0.3956E-14  0.1789E-16  0.9127E-15  0.0000E+00  0.0000E+00
    -44.099  0.1226E-13  0.1530E-12  0.1962E-12  0.6701E-12  0.9213E-14  0.1546E-12  0.0000E+00  0.0000E+00
    -43.923  0.1866E-11  0.6012E-11  0.6741E-10  0.2654E-10  0.2188E-11  0.6075E-11  0.0000E+00  0.0000E+00
    -43.747  0.1447E-09  0.5702E-10  0.8240E-08  0.1473E-08  0.2291E-09  0.5757E-10  0.0000E+00  0.0000E+00
    -43.571  0.4138E-08  0.2150E-09  0.2655E-06  0.1615E-05  0.7087E-08  0.1569E-09  0.0000E+00  0.0000E+00
    -43.395  0.3400E-07  0.2373E-07  0.2264E-05  0.4830E-03  0.5916E-07  0.5650E-08  0.0000E+00  0.0000E+00
    -43.220  0.8231E-07  0.1626E-05  0.5639E-05  0.3346E-01  0.1434E-06  0.3783E-06  0.0000E+00  0.0000E+00
    -43.044  0.6372E-07  0.2659E-04  0.4500E-05  0.5662E+00  0.1106E-06  0.6405E-05  0.0000E+00  0.0000E+00
    -42.868  0.1598E-07  0.1080E-03  0.1158E-05  0.2645E+01  0.2756E-07  0.3072E-04  0.0000E+00  0.0000E+00
    -42.692  0.1238E-08  0.1138E-03  0.8935E-07  0.4317E+01  0.2075E-08  0.5347E-04  0.0000E+00  0.0000E+00
    -42.516  0.5386E-10  0.3290E-04  0.3746E-08  0.2954E+01  0.7479E-10  0.3904E-04  0.0000E+00  0.0000E+00
    -42.340  0.3052E-10  0.1266E-04  0.7757E-08  0.8095E+00  0.8037E-10  0.1173E-04  0.0000E+00  0.0000E+00
    -42.165  0.1381E-09  0.1087E-03  0.8076E-06  0.9523E+00  0.1229E-09  0.2099E-04  0.0000E+00  0.0000E+00
    -41.989  0.3806E-07  0.3035E-03  0.2805E-03  0.2519E+01  0.5682E-08  0.5668E-04  0.0000E+00  0.0000E+00
    -41.813  0.3062E-05  0.2173E-03  0.2258E-01  0.1804E+01  0.4498E-06  0.4058E-04  0.0000E+00  0.0000E+00
    -41.637  0.5821E-04  0.3954E-04  0.4293E+00  0.3281E+00  0.8552E-05  0.7383E-05  0.0000E+00  0.0000E+00
    -41.461  0.2726E-03  0.1763E-05  0.2010E+01  0.1463E-01  0.4005E-04  0.3292E-06  0.0000E+00  0.0000E+00
    -41.285  0.3253E-03  0.1850E-07  0.2407E+01  0.1535E-03  0.4795E-04  0.3472E-08  0.0000E+00  0.0000E+00
    -41.110  0.1024E-03  0.5835E-09  0.9694E+00  0.4427E-06  0.1931E-04  0.1332E-08  0.0000E+00  0.0000E+00
    -40.934  0.2864E-04  0.1036E-07  0.1654E+01  0.1506E-05  0.3284E-04  0.2575E-07  0.0000E+00  0.0000E+00
    -40.758  0.4507E-04  0.5308E-07  0.3198E+01  0.7652E-05  0.6356E-04  0.1319E-06  0.0000E+00  0.0000E+00
    -40.582  0.5597E-04  0.8815E-07  0.3368E+01  0.1190E-04  0.6719E-04  0.2167E-06  0.0000E+00  0.0000E+00
    -40.406  0.4168E-04  0.7682E-07  0.2303E+01  0.9022E-05  0.4607E-04  0.1863E-06  0.0000E+00  0.0000E+00
    -40.230  0.9964E-05  0.4045E-07  0.5435E+00  0.4391E-05  0.1093E-04  0.9906E-07  0.0000E+00  0.0000E+00
    -40.055  0.6078E-06  0.9169E-08  0.3322E-01  0.9781E-06  0.7064E-06  0.2292E-07  0.0000E+00  0.0000E+00
    -39.879  0.8875E-08  0.7036E-09  0.5031E-03  0.7471E-07  0.1683E-07  0.1782E-08  0.0000E+00  0.0000E+00
    -39.703  0.3164E-10  0.1510E-10  0.2506E-05  0.1601E-08  0.3155E-09  0.3846E-10  0.0000E+00  0.0000E+00
    -39.527  0.4297E-13  0.7950E-13  0.9548E-08  0.8424E-11  0.2633E-11  0.2029E-12  0.0000E+00  0.0000E+00
    -39.351  0.4771E-16  0.9612E-16  0.1767E-10  0.1018E-13  0.5461E-14  0.2454E-15  0.0000E+00  0.0000E+00
    -39.175  0.2055E-19  0.2589E-19  0.8141E-14  0.2743E-17  0.2542E-17  0.6611E-19  0.0000E+00  0.0000E+00
    -38.999  0.2088E-23  0.0000E+00  0.8271E-18  0.0000E+00  0.2582E-21  0.0000E+00  0.0000E+00  0.0000E+00
    -38.824  0.0000E+00  0.0000E+00  0.0000E+00  0.0000E+00  0.0000E+00  0.0000E+00  0.0000E+00  0.0000E+00
    -38.648  0.0000E+00  0.0000E+00  0.0000E+00  0.0000E+00  0.0000E+00  0.0000E+00  0.0000E+00  0.0000E+00
    -38.472  0.0000E+00  0.0000E+00  0.0000E+00  0.0000E+00  0.0000E+00  0.0000E+00  0.0000E+00  0.0000E+00
    -38.296  0.0000E+00  0.0000E+00  0.0000E+00  0.0000E+00  0.0000E+00  0.0000E+00  0.0000E+00  0.0000E+00
    -38.120  0.0000E+00  0.0000E+00  0.0000E+00  0.0000E+00  0.0000E+00  0.0000E+00  0.0000E+00  0.0000E+00
    -37.944  0.0000E+00  0.0000E+00  0.0000E+00  0.0000E+00  0.0000E+00  0.0000E+00  0.0000E+00  0.0000E+00
    -37.769  0.0000E+00  0.0000E+00  0.0000E+00  0.0000E+00  0.0000E+00  0.0000E+00  0.0000E+00  0.0000E+00
    -37.593  0.0000E+00  0.0000E+00  0.0000E+00  0.0000E+00  0.0000E+00  0.0000E+00  0.0000E+00  0.0000E+00
    -37.417  0.0000E+00  0.0000E+00  0.0000E+00  0.0000E+00  0.0000E+00  0.0000E+00  0.0000E+00  0.0000E+00
    -37.241  0.0000E+00  0.0000E+00  0.0000E+00  0.0000E+00  0.0000E+00  0.0000E+00  0.0000E+00  0.0000E+00
    -37.065  0.0000E+00  0.0000E+00  0.0000E+00  0.0000E+00  0.0000E+00  0.0000E+00  0.0000E+00  0.0000E+00
    -36.889  0.0000E+00  0.0000E+00  0.0000E+00  0.0000E+00  0.0000E+00  0.0000E+00  0.0000E+00  0.0000E+00
    -36.714  0.0000E+00  0.0000E+00  0.0000E+00  0.0000E+00  0.0000E+00  0.0000E+00  0.0000E+00  0.0000E+00
    -36.538  0.0000E+00  0.0000E+00  0.0000E+00  0.0000E+00  0.0000E+00  0.0000E+00  0.0000E+00  0.0000E+00
    -36.362  0.0000E+00  0.0000E+00  0.0000E+00  0.0000E+00  0.0000E+00  0.0000E+00  0.0000E+00  0.0000E+00
    -36.186  0.0000E+00  0.0000E+00  0.0000E+00  0.0000E+00  0.0000E+00  0.0000E+00  0.0000E+00  0.0000E+00
    -36.010  0.0000E+00  0.0000E+00  0.0000E+00  0.0000E+00  0.0000E+00  0.0000E+00  0.0000E+00  0.0000E+00
    -35.834  0.0000E+00  0.0000E+00  0.0000E+00  0.0000E+00  0.0000E+00  0.0000E+00  0.0000E+00  0.0000E+00
    -35.659  0.0000E+00  0.0000E+00  0.0000E+00  0.0000E+00  0.0000E+00  0.0000E+00  0.0000E+00  0.0000E+00
    -35.483  0.0000E+00  0.0000E+00  0.0000E+00  0.0000E+00  0.0000E+00  0.0000E+00  0.0000E+00  0.0000E+00
    -35.307  0.0000E+00  0.0000E+00  0.0000E+00  0.0000E+00  0.0000E+00  0.0000E+00  0.0000E+00  0.0000E+00
    -35.131  0.0000E+00  0.0000E+00  0.0000E+00  0.0000E+00  0.0000E+00  0.0000E+00  0.0000E+00  0.0000E+00
    -34.955  0.0000E+00  0.0000E+00  0.0000E+00  0.0000E+00  0.0000E+00  0.0000E+00  0.0000E+00  0.0000E+00
    -34.779  0.0000E+00  0.0000E+00  0.0000E+00  0.0000E+00  0.0000E+00  0.0000E+00  0.0000E+00  0.0000E+00
    -34.604  0.0000E+00  0.0000E+00  0.0000E+00  0.0000E+00  0.0000E+00  0.0000E+00  0.0000E+00  0.0000E+00
    -34.428  0.0000E+00  0.0000E+00  0.0000E+00  0.0000E+00  0.0000E+00  0.0000E+00  0.0000E+00  0.0000E+00
    -34.252  0.0000E+00  0.0000E+00  0.0000E+00  0.0000E+00  0.0000E+00  0.0000E+00  0.0000E+00  0.0000E+00
    -34.076  0.0000E+00  0.0000E+00  0.0000E+00  0.0000E+00  0.0000E+00  0.0000E+00  0.0000E+00  0.0000E+00
    -33.900  0.0000E+00  0.0000E+00  0.0000E+00  0.0000E+00  0.0000E+00  0.0000E+00  0.0000E+00  0.0000E+00
    -33.724  0.0000E+00  0.0000E+00  0.0000E+00  0.0000E+00  0.0000E+00  0.0000E+00  0.0000E+00  0.0000E+00
    -33.548  0.0000E+00  0.0000E+00  0.0000E+00  0.0000E+00  0.0000E+00  0.0000E+00  0.0000E+00  0.0000E+00
    -33.373  0.0000E+00  0.0000E+00  0.0000E+00  0.0000E+00  0.0000E+00  0.0000E+00  0.0000E+00  0.0000E+00
    -33.197  0.0000E+00  0.0000E+00  0.0000E+00  0.0000E+00  0.0000E+00  0.0000E+00  0.0000E+00  0.0000E+00
    -33.021  0.0000E+00  0.0000E+00  0.0000E+00  0.0000E+00  0.0000E+00  0.0000E+00  0.0000E+00  0.0000E+00
    -32.845  0.0000E+00  0.0000E+00  0.0000E+00  0.0000E+00  0.0000E+00  0.0000E+00  0.0000E+00  0.0000E+00
    -32.669  0.0000E+00  0.0000E+00  0.0000E+00  0.0000E+00  0.0000E+00  0.0000E+00  0.0000E+00  0.0000E+00
    -32.493  0.0000E+00  0.0000E+00  0.0000E+00  0.0000E+00  0.0000E+00  0.0000E+00  0.0000E+00  0.0000E+00
    -32.318  0.0000E+00  0.0000E+00  0.0000E+00  0.0000E+00  0.0000E+00  0.0000E+00  0.0000E+00  0.0000E+00
    -32.142  0.0000E+00  0.0000E+00  0.0000E+00  0.0000E+00  0.0000E+00  0.0000E+00  0.0000E+00  0.0000E+00
    -31.966  0.3214E-17  0.2099E-17  0.4519E-17  0.2370E-17  0.2607E-18  0.1808E-18  0.0000E+00  0.0000E+00
    -31.790  0.2202E-13  0.1549E-13  0.3097E-13  0.1749E-13  0.1819E-14  0.1344E-14  0.0000E+00  0.0000E+00
    -31.614  0.3327E-10  0.2516E-10  0.4683E-10  0.2845E-10  0.2877E-11  0.2282E-11  0.0000E+00  0.0000E+00
    -31.438  0.1124E-07  0.9136E-08  0.1585E-07  0.1035E-07  0.1074E-08  0.9115E-09  0.0000E+00  0.0000E+00
    -31.263  0.8685E-06  0.7578E-06  0.1231E-05  0.8619E-06  0.1013E-06  0.9153E-07  0.0000E+00  0.0000E+00
    -31.087  0.1588E-04  0.1485E-04  0.2273E-04  0.1705E-04  0.2607E-05  0.2495E-05  0.0000E+00  0.0000E+00
    -30.911  0.7167E-04  0.7165E-04  0.1048E-03  0.8394E-04  0.1921E-04  0.1944E-04  0.0000E+00  0.0000E+00
    -30.735  0.8273E-04  0.8835E-04  0.1266E-03  0.1080E-03  0.4069E-04  0.4358E-04  0.0000E+00  0.0000E+00
    -30.559  0.2489E-04  0.2838E-04  0.4164E-04  0.3770E-04  0.2413E-04  0.2741E-04  0.0000E+00  0.0000E+00
    -30.383  0.2093E-05  0.2533E-05  0.4037E-05  0.3851E-05  0.3888E-05  0.4689E-05  0.0000E+00  0.0000E+00
    -30.208  0.7564E-07  0.9541E-07  0.1534E-06  0.1531E-06  0.1828E-06  0.2324E-06  0.0000E+00  0.0000E+00
    -30.032  0.1917E-08  0.2611E-08  0.3446E-08  0.3665E-08  0.4095E-08  0.5389E-08  0.0000E+00  0.0000E+00
    -29.856  0.8595E-10  0.1306E-09  0.1103E-09  0.1004E-09  0.1086E-09  0.1086E-09  0.0000E+00  0.0000E+00
    -29.680  0.1095E-10  0.1662E-10  0.1635E-10  0.1225E-10  0.1944E-10  0.1235E-10  0.0000E+00  0.0000E+00
    -29.504  0.4788E-12  0.7428E-12  0.1107E-11  0.7734E-12  0.1858E-11  0.1176E-11  0.0000E+00  0.0000E+00
    -29.328  0.6353E-14  0.1034E-13  0.2268E-13  0.1503E-13  0.4520E-13  0.2821E-13  0.0000E+00  0.0000E+00
    -29.153  0.2599E-16  0.4380E-16  0.1217E-15  0.7744E-16  0.2593E-15  0.1578E-15  0.0000E+00  0.0000E+00
    -28.977  0.2936E-19  0.4962E-19  0.1548E-18  0.9518E-19  0.3376E-18  0.1995E-18  0.0000E+00  0.0000E+00
    -28.801  0.8075E-23  0.1342E-22  0.4443E-22  0.2645E-22  0.9759E-22  0.5592E-22  0.0000E+00  0.0000E+00
    -28.625  0.0000E+00  0.0000E+00  0.0000E+00  0.0000E+00  0.0000E+00  0.0000E+00  0.0000E+00  0.0000E+00
    -28.449  0.0000E+00  0.0000E+00  0.0000E+00  0.0000E+00  0.0000E+00  0.0000E+00  0.0000E+00  0.0000E+00
    -28.273  0.0000E+00  0.0000E+00  0.0000E+00  0.0000E+00  0.0000E+00  0.0000E+00  0.0000E+00  0.0000E+00
    -28.097  0.0000E+00  0.0000E+00  0.0000E+00  0.0000E+00  0.0000E+00  0.0000E+00  0.0000E+00  0.0000E+00
    -27.922  0.0000E+00  0.0000E+00  0.0000E+00  0.0000E+00  0.0000E+00  0.0000E+00  0.0000E+00  0.0000E+00
    -27.746  0.0000E+00  0.0000E+00  0.0000E+00  0.0000E+00  0.0000E+00  0.0000E+00  0.0000E+00  0.0000E+00
    -27.570  0.0000E+00  0.0000E+00  0.0000E+00  0.0000E+00  0.0000E+00  0.0000E+00  0.0000E+00  0.0000E+00
    -27.394  0.0000E+00  0.0000E+00  0.0000E+00  0.0000E+00  0.0000E+00  0.0000E+00  0.0000E+00  0.0000E+00