 vasp.6.4.3 19Mar24 (build Jul 09 2024 15:45:28) complex                        
  
 executed on             LinuxIFC date 2024.10.29  12:23:56
 running   40 mpi-ranks, on    1 nodes
 distrk:  each k-point on   40 cores,    1 groups
 distr:  one band on NCORE=   4 cores,   10 groups


--------------------------------------------------------------------------------------------------------


 INCAR:
   ENCUT = 400.000000
   POTIM = 0.150000
   EDIFF = 1.00e-04
   EDIFFG = -1.00e-01
   ALGO = Normal
   GGA = PE
   PREC = Normal
   IBRION = 2
   IDIPOL = 3
   ISMEAR = 0
   ISPIN = 2
   LMAXMIX = 6
   LORBIT = 10
   NELM = 30
   NELMIN = 5
   NPAR = 10
   NSIM = 10
   NSW = 5
   KGAMMA = .TRUE.
   LASPH = .TRUE.
   LCHARG = .FALSE.
   LDIPOL = .TRUE.
   LWAVE = .FALSE.
   LREAL = .TRUE.
   MAGMOM = 8*1.0000 26*0.0000 2*0.5000

 POTCAR:    PAW_PBE Cr_pv 02Aug2007               
 POTCAR:    PAW_PBE La 06Sep2000                  
 POTCAR:    PAW_PBE O 08Apr2002                   
 POTCAR:    PAW_PBE H 15Jun2001                   
 POTCAR:    PAW_PBE Cr_pv 02Aug2007               
   SHA256 =  c9a7df34d3cdbacf1090e328ef39c0b420964e11c23f63548d1ac9dd218cdba0 Cr_pv/POTCAR          
   COPYR  = (c) Copyright 02Aug2007 Georg Kresse                                                    
   COPYR  = This file is part of the software VASP. Any use, copying, and all other rights are regul
   COPYR  = If you do not have a valid VASP license, you may not use, copy or distribute this file. 
   VRHFIN =Cr : p6d5s1                                                                              
   LEXCH  = PE                                                                                      
   EATOM  =  1647.9177 eV,  121.1185 Ry                                                             
                                                                                                    
   TITEL  = PAW_PBE Cr_pv 02Aug2007                                                                 
   LULTRA =        F    use ultrasoft PP ?                                                          
   IUNSCR =        1    unscreen: 0-lin 1-nonlin 2-no                                               
   RPACOR =    2.080    partial core radius                                                         
   POMASS =   51.996; ZVAL   =   12.000    mass and valenz                                          
   RCORE  =    2.300    outmost cutoff radius                                                       
   RWIGS  =    2.500; RWIGS  =    1.323    wigner-seitz radius (au A)                               
   ENMAX  =  265.681; ENMIN  =  199.261 eV                                                          
   ICORE  =        3    local potential                                                             
   LCOR   =        T    correct aug charges                                                         
   LPAW   =        T    paw PP                                                                      
   EAUG   =  519.424                                                                                
   DEXC   =    0.000                                                                                
   RMAX   =    2.356    core radius for proj-oper                                                   
   RAUG   =    1.300    factor for augmentation sphere                                              
   RDEP   =    2.447    radius for radial grids                                                     
   RDEPT  =    1.882    core radius for aug-charge                                                  
                                                                                                    
   Atomic configuration                                                                             
    8 entries                                                                                       
     n  l   j            E        occ.                                                              
     1  0  0.50     -5880.4963   2.0000                                                             
     2  0  0.50      -667.0865   2.0000                                                             
     2  1  1.50      -560.6250   6.0000                                                             
     3  0  0.50       -73.9860   2.0000                                                             
     3  1  1.50       -45.4378   6.0000                                                             
     3  2  2.50        -2.9137   5.0000                                                             
     4  0  0.50        -4.0071   1.0000                                                             
     4  3  2.50        -1.3606   0.0000                                                             
   Description                                                                                      
     l       E           TYP  RCUT    TYP  RCUT                                                     
     1    -45.4377911     23  2.000                                                                 
     1      1.3605826     23  2.000                                                                 
     2     -2.9136672     23  2.300                                                                 
     2     -4.2742498     23  2.300                                                                 
     0     -4.0071320     23  2.300                                                                 
     0      9.4498803     23  2.300                                                                 
     3      2.7211652     23  2.300                                                                 
  local pseudopotential read in
  partial core-charges read in
  partial kinetic energy density read in
  atomic valenz-charges read in
  non local Contribution for L=           1  read in
    real space projection operators read in
  non local Contribution for L=           1  read in
    real space projection operators read in
  non local Contribution for L=           2  read in
    real space projection operators read in
  non local Contribution for L=           2  read in
    real space projection operators read in
  non local Contribution for L=           0  read in
    real space projection operators read in
  non local Contribution for L=           0  read in
    real space projection operators read in
    PAW grid and wavefunctions read in
 
   number of l-projection  operators is LMAX  =           6
   number of lm-projection operators is LMMAX =          18
 
 POTCAR:    PAW_PBE La 06Sep2000                  
   SHA256 =  b7aad99517e50aeb53363b20a29bb0dfa896544080812fb23322f071df953199 La/POTCAR             
   COPYR  = (c) Copyright 06Sep2000 Georg Kresse                                                    
   COPYR  = This file is part of the software VASP. Any use, copying, and all other rights are regul
   COPYR  = If you do not have a valid VASP license, you may not use, copy or distribute this file. 
   VRHFIN =La : [core=Kr4d]                                                                         
   LEXCH  = PE                                                                                      
   EATOM  =   865.9763 eV,   63.6475 Ry                                                             
                                                                                                    
   TITEL  = PAW_PBE La 06Sep2000                                                                    
   LULTRA =        F    use ultrasoft PP ?                                                          
   IUNSCR =        1    unscreen: 0-lin 1-nonlin 2-no                                               
   RPACOR =    2.300    partial core radius                                                         
   POMASS =  138.900; ZVAL   =   11.000    mass and valenz                                          
   RCORE  =    2.800    outmost cutoff radius                                                       
   RWIGS  =    2.900; RWIGS  =    1.535    wigner-seitz radius (au A)                               
   ENMAX  =  219.292; ENMIN  =  164.469 eV                                                          
   RCLOC  =    1.601    cutoff for local pot                                                        
   LCOR   =        T    correct aug charges                                                         
   LPAW   =        T    paw PP                                                                      
   EAUG   =  583.575                                                                                
   DEXC   =    0.000                                                                                
   RMAX   =    2.853    core radius for proj-oper                                                   
   RAUG   =    1.300    factor for augmentation sphere                                              
   RDEP   =    2.802    radius for radial grids                                                     
   RDEPT  =    2.156    core radius for aug-charge                                                  
                                                                                                    
   Atomic configuration                                                                             
   14 entries                                                                                       
     n  l   j            E        occ.                                                              
     1  0  0.50    -38741.0879   2.0000                                                             
     2  0  0.50     -6166.6801   2.0000                                                             
     2  1  1.50     -5526.1593   6.0000                                                             
     3  0  0.50     -1319.0200   2.0000                                                             
     3  1  1.50     -1114.5963   6.0000                                                             
     3  2  2.50      -821.1793  10.0000                                                             
     4  0  0.50      -266.3851   2.0000                                                             
     4  1  1.50      -199.9276   6.0000                                                             
     4  2  2.50      -103.8239  10.0000                                                             
     5  0  0.50       -38.9172   2.0000                                                             
     6  0  0.50        -3.6792   2.0000                                                             
     5  1  1.50       -22.3948   6.0000                                                             
     5  2  2.50        -3.0911   0.9999                                                             
     4  3  2.50        -4.3603   0.0001                                                             
   Description                                                                                      
     l       E           TYP  RCUT    TYP  RCUT                                                     
     0    -38.9171645     23  2.800                                                                 
     0     -3.6792381     23  2.800                                                                 
     1    -22.3948300     23  2.500                                                                 
     1     27.2116520     23  2.500                                                                 
     2     -3.0910934     23  2.500                                                                 
     2      1.0119135     23  2.500                                                                 
     3     -4.3602911     23  2.800                                                                 
     3     -5.7208737     23  2.800                                                                 
  local pseudopotential read in
  partial core-charges read in
  partial kinetic energy density read in
  atomic valenz-charges read in
  non local Contribution for L=           0  read in
    real space projection operators read in
  non local Contribution for L=           0  read in
    real space projection operators read in
  non local Contribution for L=           1  read in
    real space projection operators read in
  non local Contribution for L=           1  read in
    real space projection operators read in
  non local Contribution for L=           2  read in
    real space projection operators read in
  non local Contribution for L=           2  read in
    real space projection operators read in
  non local Contribution for L=           3  read in
    real space projection operators read in
  non local Contribution for L=           3  read in
    real space projection operators read in
    PAW grid and wavefunctions read in
 
   number of l-projection  operators is LMAX  =           8
   number of lm-projection operators is LMMAX =          32
 
 POTCAR:    PAW_PBE O 08Apr2002                   
   SHA256 =  818f92134a0a090dccd8ba1447fa70422a3b330e708bb4f08108d8ae51209ddf O/POTCAR              
   COPYR  = (c) Copyright 08Apr2002 Georg Kresse                                                    
   COPYR  = This file is part of the software VASP. Any use, copying, and all other rights are regul
   COPYR  = If you do not have a valid VASP license, you may not use, copy or distribute this file. 
   VRHFIN =O: s2p4                                                                                  
   LEXCH  = PE                                                                                      
   EATOM  =   432.3788 eV,   31.7789 Ry                                                             
                                                                                                    
   TITEL  = PAW_PBE O 08Apr2002                                                                     
   LULTRA =        F    use ultrasoft PP ?                                                          
   IUNSCR =        1    unscreen: 0-lin 1-nonlin 2-no                                               
   RPACOR =    1.200    partial core radius                                                         
   POMASS =   16.000; ZVAL   =    6.000    mass and valenz                                          
   RCORE  =    1.520    outmost cutoff radius                                                       
   RWIGS  =    1.550; RWIGS  =    0.820    wigner-seitz radius (au A)                               
   ENMAX  =  400.000; ENMIN  =  300.000 eV                                                          
   ICORE  =        2    local potential                                                             
   LCOR   =        T    correct aug charges                                                         
   LPAW   =        T    paw PP                                                                      
   EAUG   =  605.392                                                                                
   DEXC   =    0.000                                                                                
   RMAX   =    1.553    core radius for proj-oper                                                   
   RAUG   =    1.300    factor for augmentation sphere                                              
   RDEP   =    1.550    radius for radial grids                                                     
   RDEPT  =    1.329    core radius for aug-charge                                                  
                                                                                                    
   Atomic configuration                                                                             
    4 entries                                                                                       
     n  l   j            E        occ.                                                              
     1  0  0.50      -514.6923   2.0000                                                             
     2  0  0.50       -23.9615   2.0000                                                             
     2  1  0.50        -9.0305   4.0000                                                             
     3  2  1.50        -9.5241   0.0000                                                             
   Description                                                                                      
     l       E           TYP  RCUT    TYP  RCUT                                                     
     0    -23.9615318     23  1.200                                                                 
     0     -9.5240782     23  1.200                                                                 
     1     -9.0304911     23  1.520                                                                 
     1      8.1634956     23  1.520                                                                 
     2     -9.5240782      7  1.500                                                                 
  local pseudopotential read in
  partial core-charges read in
  partial kinetic energy density read in
  kinetic energy density of atom read in
  atomic valenz-charges read in
  non local Contribution for L=           0  read in
    real space projection operators read in
  non local Contribution for L=           0  read in
    real space projection operators read in
  non local Contribution for L=           1  read in
    real space projection operators read in
  non local Contribution for L=           1  read in
    real space projection operators read in
    PAW grid and wavefunctions read in
 
   number of l-projection  operators is LMAX  =           4
   number of lm-projection operators is LMMAX =           8
 
 POTCAR:    PAW_PBE H 15Jun2001                   
   SHA256 =  030f79b5d3ab3cf0e668861823c8fb652ff669f3e15e46930bd03bfd63a607b6 H/POTCAR              
   COPYR  = (c) Copyright 15Jun2001 Georg Kresse                                                    
   COPYR  = This file is part of the software VASP. Any use, copying, and all other rights are regul
   COPYR  = If you do not have a valid VASP license, you may not use, copy or distribute this file. 
   VRHFIN =H: ultrasoft test                                                                        
   LEXCH  = PE                                                                                      
   EATOM  =    12.4884 eV,    0.9179 Ry                                                             
                                                                                                    
   TITEL  = PAW_PBE H 15Jun2001                                                                     
   LULTRA =        F    use ultrasoft PP ?                                                          
   IUNSCR =        0    unscreen: 0-lin 1-nonlin 2-no                                               
   RPACOR =    0.000    partial core radius                                                         
   POMASS =    1.000; ZVAL   =    1.000    mass and valenz                                          
   RCORE  =    1.100    outmost cutoff radius                                                       
   RWIGS  =    0.700; RWIGS  =    0.370    wigner-seitz radius (au A)                               
   ENMAX  =  250.000; ENMIN  =  200.000 eV                                                          
   RCLOC  =    0.701    cutoff for local pot                                                        
   LCOR   =        T    correct aug charges                                                         
   LPAW   =        T    paw PP                                                                      
   EAUG   =  400.000                                                                                
   RMAX   =    1.123    core radius for proj-oper                                                   
   RAUG   =    1.200    factor for augmentation sphere                                              
   RDEP   =    1.112    radius for radial grids                                                     
   RDEPT  =    0.926    core radius for aug-charge                                                  
                                                                                                    
   Atomic configuration                                                                             
    2 entries                                                                                       
     n  l   j            E        occ.                                                              
     1  0  0.50        -6.4927   1.0000                                                             
     2  1  0.50        -3.4015   0.0000                                                             
   Description                                                                                      
     l       E           TYP  RCUT    TYP  RCUT                                                     
     0     -6.4927494     23  1.100                                                                 
     0      6.8029130     23  1.100                                                                 
     1     -4.0817478     23  1.100                                                                 
  local pseudopotential read in
  atomic valenz-charges read in
  non local Contribution for L=           0  read in
    real space projection operators read in
  non local Contribution for L=           0  read in
    real space projection operators read in
  non local Contribution for L=           1  read in
    real space projection operators read in
    PAW grid and wavefunctions read in
 
   number of l-projection  operators is LMAX  =           3
   number of lm-projection operators is LMMAX =           5
 
 -----------------------------------------------------------------------------
|                                                                             |
|           W    W    AA    RRRRR   N    N  II  N    N   GGGG   !!!           |
|           W    W   A  A   R    R  NN   N  II  NN   N  G    G  !!!           |
|           W    W  A    A  R    R  N N  N  II  N N  N  G       !!!           |
|           W WW W  AAAAAA  RRRRR   N  N N  II  N  N N  G  GGG   !            |
|           WW  WW  A    A  R   R   N   NN  II  N   NN  G    G                |
|           W    W  A    A  R    R  N    N  II  N    N   GGGG   !!!           |
|                                                                             |
|     The real-space projection scheme for the treatment of the non-local     |
|     pseudopotentials has been switched on but on file POTCAR I have not     |
|     found any entries, signalling me that you have never performed a        |
|     real-space optimization of all non-local projectors! BE WARNED that     |
|     a calculation using the real-space projection scheme together with      |
|     non-local projectors which were not real-space optimized (according     |
|     to the plane-wave cutoff used in this calculation) might give more      |
|     or less inaccurate results. I hope you know what you are doing.         |
|                                                                             |
 -----------------------------------------------------------------------------

  PAW_PBE Cr_pv 02Aug2007               :
 energy of atom  1       EATOM=-1647.9177
 kinetic energy error for atom=    0.0284 (will be added to EATOM!!)
  PAW_PBE La 06Sep2000                  :
 energy of atom  2       EATOM= -865.9763
 kinetic energy error for atom=    0.0031 (will be added to EATOM!!)
  PAW_PBE O 08Apr2002                   :
 energy of atom  3       EATOM= -432.3788
 kinetic energy error for atom=    0.1156 (will be added to EATOM!!)
  PAW_PBE H 15Jun2001                   :
 energy of atom  4       EATOM=  -12.4884
 kinetic energy error for atom=    0.0098 (will be added to EATOM!!)
 
 
 POSCAR: Cr La O  H
  positions in cartesian coordinates
  No initial velocities read in


 exchange-correlation table for PE
   RHO(1)=    0.500       N(1)  =     2000
   RHO(2)=  100.500       N(2)  =     4000

 VTST: version 4.1, (05/19/21)

 CHAIN: initializing optimizer
 
 OPT: Using VASP Conjugate-Gradient optimizer
 CHAIN: Read ICHAIN            0
 
 POSCAR: Cr La O  H
  positions in cartesian coordinates
  No initial velocities read in
 


--------------------------------------------------------------------------------------------------------


 ion  position               nearest neighbor table
   1  0.000  0.500  0.003-  16 1.91  18 1.97  15 2.18  10 3.23   9 3.35   9 3.42
   2  0.500  0.000  0.003-  15 1.91  17 1.97  16 2.18   9 3.23  10 3.35  10 3.42
   3  0.500  0.000  0.136-  20 1.91  21 1.91  17 1.97  23 1.97  22 2.18  19 2.18   9 3.23  11 3.23
                            10 3.35  12 3.35  12 3.42  10 3.42
   4  0.000  0.500  0.136-  19 1.91  22 1.91  18 1.97  24 1.97  20 2.18  21 2.18  10 3.23  12 3.23
                            11 3.35   9 3.35   9 3.42  11 3.42
   5  1.000  0.499  0.269-  30 1.90  28 1.97  25 2.00  24 2.01  27 2.13  26 2.13  14 3.25  12 3.26
                            13 3.34  11 3.37
   6  0.500  0.999  0.269-  29 1.90  27 1.97  26 2.00  23 2.01  28 2.13  25 2.13  13 3.25  11 3.26
                            14 3.34  12 3.37
   7  0.489  0.003  0.400-  33 1.89  29 1.97  32 2.02  34 2.12  31 2.16  13 3.23  14 3.34  14 3.35

   8  0.011  0.503  0.400-  34 1.89  30 1.97  31 2.02  35 2.04  33 2.12  32 2.16  14 3.23  13 3.34
                            13 3.35
   9  0.508  0.549  0.070-  18 2.43  16 2.46  19 2.46  17 2.56  15 2.65  20 2.65  22 2.70   3 3.23
                             2 3.23   4 3.35   1 3.35   4 3.42   1 3.42
  10  0.992  0.049  0.070-  17 2.43  15 2.46  20 2.46  18 2.56  19 2.65  16 2.65  21 2.70   4 3.23
                             1 3.23   3 3.35   2 3.35   3 3.42   2 3.42
  11  0.492  0.451  0.202-  25 2.40  24 2.43  22 2.46  23 2.56  28 2.64  21 2.65  26 2.66  19 2.70
                             3 3.23   6 3.26   4 3.35   5 3.37   4 3.42
  12  0.008  0.951  0.202-  26 2.40  23 2.43  21 2.46  24 2.56  27 2.64  22 2.65  25 2.66  20 2.70
                             4 3.23   5 3.26   3 3.35   6 3.37   3 3.42
  13  0.510  0.544  0.336-  31 2.36  28 2.43  30 2.45  34 2.59  32 2.59  29 2.68  27 2.76  25 2.76
                             7 3.23   6 3.25   5 3.34   8 3.34   8 3.35
  14  0.990  0.044  0.336-  32 2.36  27 2.43  29 2.45  33 2.59  31 2.59  30 2.68  28 2.76  26 2.76
                             8 3.23   5 3.25   6 3.34   7 3.34   7 3.35
  15  0.774  0.807  0.014-   2 1.91   1 2.18  10 2.46   9 2.65
  16  0.726  0.307  0.014-   1 1.91   2 2.18   9 2.46  10 2.65
  17  0.425  0.987  0.070-   3 1.97   2 1.97  10 2.43   9 2.56
  18  0.075  0.487  0.070-   4 1.97   1 1.97   9 2.43  10 2.56
  19  0.726  0.307  0.126-   4 1.91   3 2.18   9 2.46  10 2.65  11 2.70
  20  0.774  0.807  0.126-   3 1.91   4 2.18  10 2.46   9 2.65  12 2.70
  21  0.226  0.193  0.146-   3 1.91   4 2.18  12 2.46  11 2.65  10 2.70
  22  0.274  0.693  0.146-   4 1.91   3 2.18  11 2.46  12 2.65   9 2.70
  23  0.575  0.013  0.202-   3 1.97   6 2.01  12 2.43  11 2.56
  24  0.925  0.513  0.202-   4 1.97   5 2.01  11 2.43  12 2.56
  25  0.289  0.696  0.256-   5 2.00   6 2.13  11 2.40  12 2.66  13 2.76
  26  0.211  0.196  0.256-   6 2.00   5 2.13  12 2.40  11 2.66  14 2.76
  27  0.792  0.808  0.278-   6 1.97   5 2.13  14 2.43  12 2.64  13 2.76
  28  0.708  0.308  0.278-   5 1.97   6 2.13  13 2.43  11 2.64  14 2.76
  29  0.430  0.004  0.333-   6 1.90   7 1.97  14 2.45  13 2.68
  30  0.070  0.504  0.333-   5 1.90   8 1.97  13 2.45  14 2.68
  31  0.719  0.301  0.388-   8 2.02   7 2.16  13 2.36  14 2.59
  32  0.781  0.801  0.388-   7 2.02   8 2.16  14 2.36  13 2.59
  33  0.213  0.192  0.408-   7 1.89   8 2.12  14 2.59
  34  0.287  0.692  0.408-   8 1.89   7 2.12  13 2.59
  35  0.000  0.494  0.470-  36 0.98   8 2.04
  36  0.000  0.552  0.502-  35 0.98
 
  LATTYP: Found a simple orthorhombic cell.
 ALAT       =     5.5367000000
 B/A-ratio  =     1.0380370979
 C/A-ratio  =     5.2541031011
  
  Lattice vectors:
  
 A1 = (   5.5367000000,   0.0000000000,   0.0000000000)
 A2 = (   0.0000000000,   5.7473000000,   0.0000000000)
 A3 = (   0.0000000000,   0.0000000000,  29.0903926400)


Analysis of symmetry for initial positions (statically):
=====================================================================
 Subroutine PRICEL returns:
 Original cell was already a primitive cell.
 

 Routine SETGRP: Setting up the symmetry group for a 
 simple orthorhombic supercell.


 Subroutine GETGRP returns: Found  1 space group operations
 (whereof  1 operations were pure point group operations)
 out of a pool of  8 trial point group operations.


The static configuration has the point symmetry C_1 .


Analysis of symmetry for dynamics (positions and initial velocities):
=====================================================================
 Subroutine PRICEL returns:
 Original cell was already a primitive cell.
 

 Routine SETGRP: Setting up the symmetry group for a 
 simple orthorhombic supercell.


 Subroutine GETGRP returns: Found  1 space group operations
 (whereof  1 operations were pure point group operations)
 out of a pool of  8 trial point group operations.


The dynamic configuration has the point symmetry C_1 .


Analysis of constrained symmetry for selective dynamics:
=====================================================================
 Subroutine PRICEL returns:
 Original cell was already a primitive cell.
 

 Routine SETGRP: Setting up the symmetry group for a 
 simple orthorhombic supercell.


 Subroutine GETGRP returns: Found  1 space group operations
 (whereof  1 operations were pure point group operations)
 out of a pool of  8 trial point group operations.


The constrained configuration has the point symmetry C_1 .


Analysis of structural, dynamic, and magnetic symmetry:
=====================================================================
 Subroutine PRICEL returns:
 Original cell was already a primitive cell.
 

 Routine SETGRP: Setting up the symmetry group for a 
 simple orthorhombic supercell.


 Subroutine GETGRP returns: Found  1 space group operations
 (whereof  1 operations were pure point group operations)
 out of a pool of  8 trial point group operations.


The overall configuration has the point symmetry C_1 .


 Subroutine INISYM returns: Found  1 space group operations
 (whereof  1 operations are pure point group operations),
 and found     1 'primitive' translations


----------------------------------------------------------------------------------------

                                     Primitive cell                                     

  volume of cell :     925.6876

  direct lattice vectors                    reciprocal lattice vectors
     5.536700000  0.000000000  0.000000000     0.180613001  0.000000000  0.000000000
     0.000000000  5.747300000  0.000000000     0.000000000  0.173994745  0.000000000
     0.000000000  0.000000000 29.090392640     0.000000000  0.000000000  0.034375610

  length of vectors
     5.536700000  5.747300000 29.090392640     0.180613001  0.173994745  0.034375610

  position of ions in fractional coordinates (direct lattice)
     0.000000000  0.500000000  0.003437561
     0.500000000  0.000000000  0.003437561
     0.500000000  0.000000000  0.135661627
     0.000000000  0.500000000  0.135661627
     0.999869288  0.499384381  0.269371256
     0.500130712  0.999384381  0.269371256
     0.489395868  0.003155030  0.400064527
     0.010604132  0.503155030  0.400064527
     0.507800000  0.549000000  0.069549594
     0.992200000  0.049000000  0.069549594
     0.492200000  0.451000000  0.201773660
     0.007800000  0.951000000  0.201773660
     0.509573887  0.544166459  0.335817371
     0.990426113  0.044166459  0.335817371
     0.774400000  0.806600000  0.013592369
     0.725600000  0.306600000  0.013592369
     0.425500000  0.987400000  0.069549594
     0.074500000  0.487400000  0.069549594
     0.725600000  0.306600000  0.125506819
     0.774400000  0.806600000  0.125506819
     0.225600000  0.193400000  0.145816435
     0.274400000  0.693400000  0.145816435
     0.574500000  0.012600000  0.201773660
     0.925500000  0.512600000  0.201773660
     0.288705330  0.696341168  0.256143619
     0.211294670  0.196341168  0.256143619
     0.792048047  0.807818652  0.277526194
     0.707951953  0.307818652  0.277526194
     0.429843379  0.003571190  0.333245042
     0.070156621  0.503571190  0.333245042
     0.719086704  0.301287230  0.387742702
     0.780913296  0.801287230  0.387742702
     0.213394579  0.192287266  0.408348745
     0.286605421  0.692287266  0.408348745
     0.000000000  0.493526177  0.470224844
     0.000000000  0.551790346  0.501851260

  ion indices of the primitive-cell ions
   primitive index   ion index
                 1           1
                 2           2
                 3           3
                 4           4
                 5           5
                 6           6
                 7           7
                 8           8
                 9           9
                10          10
                11          11
                12          12
                13          13
                14          14
                15          15
                16          16
                17          17
                18          18
                19          19
                20          20
                21          21
                22          22
                23          23
                24          24
                25          25
                26          26
                27          27
                28          28
                29          29
                30          30
                31          31
                32          32
                33          33
                34          34
                35          35
                36          36

----------------------------------------------------------------------------------------

 
 
 KPOINTS: KPOINTS created by Atomic Simulation Env

Automatic generation of k-mesh.
 Grid dimensions read from file:
 generate k-points for:    1    1    1

 Generating k-lattice:

  Cartesian coordinates                     Fractional coordinates (reciprocal lattice)
     0.180613001  0.000000000  0.000000000     1.000000000  0.000000000  0.000000000
     0.000000000  0.173994745  0.000000000     0.000000000  1.000000000  0.000000000
     0.000000000  0.000000000  0.034375610     0.000000000  0.000000000  1.000000000

  Length of vectors
     0.180613001  0.173994745  0.034375610

  Shift w.r.t. Gamma in fractional coordinates (k-lattice)
     0.000000000  0.000000000  0.000000000

 
 Subroutine IBZKPT returns following result:
 ===========================================
 
 Found      1 irreducible k-points:
 
 Following reciprocal coordinates:
            Coordinates               Weight
  0.000000  0.000000  0.000000      1.000000
 
 Following cartesian coordinates:
            Coordinates               Weight
  0.000000  0.000000  0.000000      1.000000
 


--------------------------------------------------------------------------------------------------------




 Dimension of arrays:
   k-points           NKPTS =      1   k-points in BZ     NKDIM =      1   number of bands    NBANDS=    180
   number of dos      NEDOS =    301   number of ions     NIONS =     36
   non local maximal  LDIM  =      8   non local SUM 2l+1 LMDIM =     32
   total plane-waves  NPLWV = 112896
   max r-space proj   IRMAX =   1808   max aug-charges    IRDMAX=   6572
   dimension x,y,z NGX =    28 NGY =   28 NGZ =  144
   dimension x,y,z NGXF=    56 NGYF=   56 NGZF=  288
   support grid    NGXF=    56 NGYF=   56 NGZF=  288
   ions per type =               8   6  21   1
   NGX,Y,Z   is equivalent  to a cutoff of   8.41,  8.10,  8.23 a.u.
   NGXF,Y,Z  is equivalent  to a cutoff of  16.81, 16.20, 16.46 a.u.

 SYSTEM =  unknown system                          
 POSCAR =  Cr La O  H                              

 Startparameter for this run:
   NWRITE =      2    write-flag & timer
   PREC   = normal    normal or accurate (medium, high low for compatibility)
   ISTART =      0    job   : 0-new  1-cont  2-samecut
   ICHARG =      2    charge: 1-file 2-atom 10-const
   ISPIN  =      2    spin polarized calculation?
   LNONCOLLINEAR =      F non collinear calculations
   LSORBIT =      F    spin-orbit coupling
   INIWAV =      1    electr: 0-lowe 1-rand  2-diag
   LASPH  =      T    aspherical Exc in radial PAW
 Electronic Relaxation 1
   ENCUT  =  400.0 eV  29.40 Ry    5.42 a.u.   9.03  9.37 47.44*2*pi/ulx,y,z
   ENINI  =  400.0     initial cutoff
   ENAUG  =  605.4 eV  augmentation charge cutoff
   NELM   =     30;   NELMIN=  5; NELMDL=  0     # of ELM steps 
   EDIFF  = 0.1E-03   stopping-criterion for ELM
   LREAL  =      T    real-space projection
   NLSPLINE    = F    spline interpolate recip. space projectors
   LCOMPAT=      F    compatible to vasp.4.4
   GGA_COMPAT  = T    GGA compatible to vasp.4.4-vasp.4.6
   LMAXPAW     = -100 max onsite density
   LMAXMIX     =    6 max onsite mixed and CHGCAR
   VOSKOWN=      0    Vosko Wilk Nusair interpolation
   ROPT   =    0.00000   0.00000   0.00000   0.00000
 Ionic relaxation
   EDIFFG = -.1E+00   stopping-criterion for IOM
   NSW    =      5    number of steps for IOM
   NBLOCK =      1;   KBLOCK =      5    inner block; outer block 
   IBRION =      2    ionic relax: 0-MD 1-quasi-New 2-CG
   NFREE  =      1    steps in history (QN), initial steepest desc. (CG)
   ISIF   =      2    stress and relaxation
   IWAVPR =     11    prediction:  0-non 1-charg 2-wave 3-comb
   ISYM   =      2    0-nonsym 1-usesym 2-fastsym
   LCORR  =      T    Harris-Foulkes like correction to forces

   POTIM  = 0.1500    time-step for ionic-motion
   TEIN   =    0.0    initial temperature
   TEBEG  =    0.0;   TEEND  =   0.0 temperature during run
   SMASS  =  -3.00    Nose mass-parameter (am)
   estimated Nose-frequenzy (Omega)   =  0.10E-29 period in steps = 0.42E+47 mass=  -0.701E-27a.u.
   SCALEE = 1.0000    scale energy and forces
   NPACO  =    256;   APACO  = 10.0  distance and # of slots for P.C.
   PSTRESS=    0.0 pullay stress

  Mass of Ions in am
   POMASS =  52.00138.90 16.00  1.00
  Ionic Valenz
   ZVAL   =  12.00 11.00  6.00  1.00
  Atomic Wigner-Seitz radii
   RWIGS  =  -1.00 -1.00 -1.00 -1.00
  virtual crystal weights 
   VCA    =   1.00  1.00  1.00  1.00
   NELECT =     289.0000    total number of electrons
   NUPDOWN=      -1.0000    fix difference up-down

 DOS related values:
   EMIN   =  10.00;   EMAX   =-10.00  energy-range for DOS
   EFERMI =   0.00;   METHOD = LEGACY      
   ISMEAR =     0;   SIGMA  =   0.20  broadening in eV -4-tet -1-fermi 0-gaus

 Electronic relaxation 2 (details)
   IALGO  =     38    algorithm
   LDIAG  =      T    sub-space diagonalisation (order eigenvalues)
   LSUBROT=      F    optimize rotation matrix (better conditioning)
   TURBO    =      0    0=normal 1=particle mesh
   IRESTART =      0    0=no restart 2=restart with 2 vectors
   NREBOOT  =      0    no. of reboots
   NMIN     =      0    reboot dimension
   EREF     =   0.00    reference energy to select bands
   IMIX   =      4    mixing-type and parameters
     AMIX     =   0.40;   BMIX     =  1.00
     AMIX_MAG =   1.60;   BMIX_MAG =  1.00
     AMIN     =   0.10
     WC   =   100.;   INIMIX=   1;  MIXPRE=   1;  MAXMIX= -45

 Intra band minimization:
   WEIMIN = 0.0010     energy-eigenvalue tresh-hold
   EBREAK =  0.14E-06  absolut break condition
   DEPER  =   0.30     relativ break condition  

   TIME   =   0.40     timestep for ELM

  volume/ion in A,a.u.               =      25.71       173.52
  Fermi-wavevector in a.u.,A,eV,Ry     =   1.110587  2.098705 16.781477  1.233404
  Thomas-Fermi vector in A             =   2.247140
 
 Write flags
   LWAVE        =      F    write WAVECAR
   LDOWNSAMPLE  =      F    k-point downsampling of WAVECAR
   LCHARG       =      F    write CHGCAR
   LVTOT        =      F    write LOCPOT, total local potential
   LVHAR        =      F    write LOCPOT, Hartree potential only
   WRT_POTENTIAL= false  ! write potential to hdf5 file
   LELF         =      F    write electronic localiz. function (ELF)
   LORBIT       =     10    0 simple, 1 ext, 2 COOP (PROOUT), +10 PAW based schemes


 Dipole corrections
   LMONO      =      F    monopole corrections only (constant potential shift)
   LDIPOL     =      T    correct potential (dipole corrections)
   IDIPOL     =      3    1-x, 2-y, 3-z, 4-all directions 
   EPSILON    =  1.0000000 bulk dielectric constant
   LVACPOTAV  =      F  vacuum potentials using an averaging scheme for the charge density
   VACPOTFLAT =  0.1000000 required flatness to determine vacuum potential
 Exchange correlation treatment:
   GGA     = PE    functional components
   XC_C    = 1    coefficients multiplying the functional components
   LIBXC   =     F    Libxc                    
   VOSKOWN =     0    Vosko Wilk Nusair interpolation
   LHFCALC =     F    Hartree Fock is set to
   LHFONE  =     F    Hartree Fock one center treatment
   AEXX    =    0.0000 exact exchange contribution

 Parameters of functionals:
   PE:
     No parameter
 
 Van der Waals corrections
   IVDW    =     0    specifies the selected vdW correction

 Linear response parameters
   LEPSILON=     F    determine dielectric tensor
   LRPA    =     F    only Hartree local field effects (RPA)
   LNABLA  =     F    use nabla operator in PAW spheres
   LVEL    =     F    velocity operator in full k-point grid
   CSHIFT  =0.1000    complex shift for real part using Kramers Kronig
   OMEGAMAX=  -1.0    maximum frequency
   DEG_THRESHOLD= 0.2000000E-02 threshold for treating states as degnerate
   RTIME   =   -0.100 relaxation time in fs
  (WPLASMAI=    0.000 imaginary part of plasma frequency in eV, 0.658/RTIME)
   DFIELD  = 0.0000000 0.0000000 0.0000000 field for delta impulse in time
 
  Optional k-point grid parameters
   LKPOINTS_OPT  =     F    use optional k-point grid
   KPOINTS_OPT_MODE=     1    mode for optional k-point grid
 
 Orbital magnetization related:
   ORBITALMAG=     F  switch on orbital magnetization
   LCHIMAG   =     F  perturbation theory with respect to B field
   DQ        =  0.001000  dq finite difference perturbation B field
   LLRAUG    =     F  two centre corrections for induced B field
   LBONE     =     F  B-component reconstruction in AE one-centre
   LVGVCALC  =     T  calculate vGv susceptibility
   LVGVAPPL  =     F  apply vGv susceptibility instead of pGv for G=0

 Random number generation:
   RANDOM_GENERATOR = DEFAULT
   PCG_SEED         = not used


--------------------------------------------------------------------------------------------------------


 conjugate gradient relaxation of ions
   using selective dynamics as specified on POSCAR
   WARNING: If single coordinates had been selected the selection of coordinates
            is made according to the corresponding   d i r e c t   coordinates!
            Don't support selection of single cartesian coordinates -- sorry ...
  !
 charge density and potential will be updated during run
 spin polarized calculation
 Variant of blocked Davidson
 Davidson routine will perform the subspace rotation
 perform sub-space diagonalisation
    after iterative eigenvector-optimisation
 modified Broyden-mixing scheme, WC =      100.0
 initial mixing is a Kerker type mixing with AMIX =  0.4000 and BMIX =      1.0000
 Hartree-type preconditioning will be used
 using additional bands           35
 real space projection scheme for non local part
 use partial core corrections
 calculate Harris-corrections to forces 
   (improved forces if not selfconsistent)
 use gradient corrections 
 use of overlap-Matrix (Vanderbilt PP)
 Gauss-broadening in eV      SIGMA  =   0.20


--------------------------------------------------------------------------------------------------------


  energy-cutoff  :      400.00
  volume of cell :      925.69
      direct lattice vectors                 reciprocal lattice vectors
     5.536700000  0.000000000  0.000000000     0.180613001  0.000000000  0.000000000
     0.000000000  5.747300000  0.000000000     0.000000000  0.173994745  0.000000000
     0.000000000  0.000000000 29.090392640     0.000000000  0.000000000  0.034375610

  length of vectors
     5.536700000  5.747300000 29.090392640     0.180613001  0.173994745  0.034375610


 
 k-points in units of 2pi/SCALE and weight: KPOINTS created by Atomic Simulation Env
   0.00000000  0.00000000  0.00000000       1.000
 
 k-points in reciprocal lattice and weights: KPOINTS created by Atomic Simulation Env
   0.00000000  0.00000000  0.00000000       1.000
 
 position of ions in fractional coordinates (direct lattice) 
   0.00000000  0.50000000  0.00343756
   0.50000000  0.00000000  0.00343756
   0.50000000  0.00000000  0.13566163
   0.00000000  0.50000000  0.13566163
   0.99986929  0.49938438  0.26937126
   0.50013071  0.99938438  0.26937126
   0.48939587  0.00315503  0.40006453
   0.01060413  0.50315503  0.40006453
   0.50780000  0.54900000  0.06954959
   0.99220000  0.04900000  0.06954959
   0.49220000  0.45100000  0.20177366
   0.00780000  0.95100000  0.20177366
   0.50957389  0.54416646  0.33581737
   0.99042611  0.04416646  0.33581737
   0.77440000  0.80660000  0.01359237
   0.72560000  0.30660000  0.01359237
   0.42550000  0.98740000  0.06954959
   0.07450000  0.48740000  0.06954959
   0.72560000  0.30660000  0.12550682
   0.77440000  0.80660000  0.12550682
   0.22560000  0.19340000  0.14581644
   0.27440000  0.69340000  0.14581644
   0.57450000  0.01260000  0.20177366
   0.92550000  0.51260000  0.20177366
   0.28870533  0.69634117  0.25614362
   0.21129467  0.19634117  0.25614362
   0.79204805  0.80781865  0.27752619
   0.70795195  0.30781865  0.27752619
   0.42984338  0.00357119  0.33324504
   0.07015662  0.50357119  0.33324504
   0.71908670  0.30128723  0.38774270
   0.78091330  0.80128723  0.38774270
   0.21339458  0.19228727  0.40834875
   0.28660542  0.69228727  0.40834875
   0.00000000  0.49352618  0.47022484
   0.00000000  0.55179035  0.50185126
 
 position of ions in cartesian coordinates  (Angst):
   0.00000000  2.87365000  0.10000000
   2.76835000  0.00000000  0.10000000
   2.76835000  0.00000000  3.94645000
   0.00000000  2.87365000  3.94645000
   5.53597629  2.87011185  7.83611561
   2.76907371  5.74376185  7.83611561
   2.70963810  0.01813291 11.63803417
   0.05871190  2.89178291 11.63803417
   2.81153626  3.15526770  2.02322500
   5.49351374  0.28161770  2.02322500
   2.72516374  2.59203230  5.86967500
   0.04318626  5.46568230  5.86967500
   2.82135774  3.12748789  9.76905917
   5.48369226  0.25383789  9.76905917
   4.28762048  4.63577218  0.39540736
   4.01742952  1.76212218  0.39540736
   2.35586585  5.67488402  2.02322500
   0.41248415  2.80123402  2.02322500
   4.01742952  1.76212218  3.65104264
   4.28762048  4.63577218  3.65104264
   1.24907952  1.11152782  4.24185736
   1.51927048  3.98517782  4.24185736
   3.18083415  0.07241598  5.86967500
   5.12421585  2.94606598  5.86967500
   1.59847480  4.00208159  7.45131844
   1.16987520  1.12843159  7.45131844
   4.38533242  4.64277614  8.07334595
   3.91971758  1.76912614  8.07334595
   2.37991384  0.02052470  9.69422912
   0.38843616  2.89417470  9.69422912
   3.98136735  1.73158810 11.27958744
   4.32368265  4.60523810 11.27958744
   1.18150177  1.10513260 11.87902533
   1.58684823  3.97878260 11.87902533
   0.00000000  2.83644300 13.67902533
   0.00000000  3.17130466 14.59905019
 


--------------------------------------------------------------------------------------------------------


 k-point     1 :   0.0000 0.0000 0.0000  plane waves:   16779

 maximum and minimum number of plane-waves per node :      4200     4193

 maximum number of plane-waves:     16779
 maximum index in each direction: 
   IXMAX=    9   IYMAX=    9   IZMAX=   47
   IXMIN=   -9   IYMIN=   -9   IZMIN=  -47


 real space projection operators:
  total allocation   :       3993.98 KBytes
  max/ min on nodes  :       1003.65        995.62


 parallel 3D FFT for wavefunctions:
    minimum data exchange during FFTs selected (reduces bandwidth)
 parallel 3D FFT for charge:
    minimum data exchange during FFTs selected (reduces bandwidth)


 total amount of memory used by VASP MPI-rank0    42941. kBytes
=======================================================================

   base      :      30000. kBytes
   nonlr-proj:       2305. kBytes
   fftplans  :       1875. kBytes
   grid      :       5378. kBytes
   one-center:        884. kBytes
   wavefun   :       2499. kBytes
 
     INWAV:  cpu time      0.0000: real time      0.0000
 Broyden mixing: mesh for mixing (old mesh)
   NGX = 19   NGY = 19   NGZ = 95
  (NGX  = 56   NGY  = 56   NGZ  =288)
  gives a total of  34295 points

 initial charge density was supplied:
 charge density of overlapping atoms calculated
 number of electron     289.0000000 magnetization       9.0000000
 keeping initial charge density in first step


--------------------------------------------------------------------------------------------------------


 Maximum index for non-local projection operator          447
 Maximum index for augmentation-charges          402 (set IRDMAX)


--------------------------------------------------------------------------------------------------------


 First call to EWALD:  gamma=   0.182
 Maximum number of real-space cells 4x 4x 1
 Maximum number of reciprocal cells 2x 2x 7

    FEWALD:  cpu time      0.0016: real time      0.0016


--------------------------------------- Ionic step        1  -------------------------------------------




--------------------------------------- Iteration      1(   1)  ---------------------------------------


    POTLOK:  cpu time      0.0351: real time      0.0361
    SETDIJ:  cpu time      0.8485: real time      0.8505
     EDDAV:  cpu time      0.3850: real time      0.3867
       DOS:  cpu time      0.0011: real time      0.0012
    --------------------------------------------
      LOOP:  cpu time      1.2698: real time      1.2744

 eigenvalue-minimisations  :   760
 total energy-change (2. order) : 0.4473276E+04  (-0.1091515E+05)
 number of electron     289.0000000 magnetization       9.0000000
 augmentation part      289.0000000 magnetization       9.0000000

 DIPCOR: dipole corrections for dipol
 direction  3 min pos   213,
 dipolmoment           0.000000      0.000000      0.000111 electrons x Angstroem
 Tr[quadrupol]     -1842.256993

 energy correction for charged system         0.000000 eV
 dipol+quadrupol energy correction           -0.000000 eV
 added-field ion interaction          0.003491 eV  (added to PSCEN)


 Free energy of the ion-electron system (eV)
  ---------------------------------------------------
  alpha Z        PSCENC =       597.55832632
  Ewald energy   TEWEN  =    141124.58868870
  -Hartree energ DENC   =   -165783.18563903
  -exchange      EXHF   =         0.00000000
  -V(xc)+E(xc)   XCENC  =      1208.16124107
  PAW double counting   =     21601.85621698   -22022.81956305
  entropy T*S    EENTRO =        -0.27008726
  eigenvalues    EBANDS =       278.42732224
  atomic energy  EATOM  =     27468.95917810
  Solvation  Ediel_sol  =         0.00000000
  ---------------------------------------------------
  free energy    TOTEN  =      4473.27568406 eV

  energy without entropy =     4473.54577132  energy(sigma->0) =     4473.41072769


--------------------------------------------------------------------------------------------------------




--------------------------------------- Iteration      1(   2)  ---------------------------------------


     EDDAV:  cpu time      0.3730: real time      0.3794
       DOS:  cpu time      0.0003: real time      0.0003
    --------------------------------------------
      LOOP:  cpu time      0.3733: real time      0.3796

 eigenvalue-minimisations  :   800
 total energy-change (2. order) :-0.3518314E+04  (-0.3210050E+04)
 number of electron     289.0000000 magnetization       9.0000000
 augmentation part      289.0000000 magnetization       9.0000000

 DIPCOR: dipole corrections for dipol
 direction  3 min pos   213,
 dipolmoment           0.000000      0.000000      0.000111 electrons x Angstroem
 Tr[quadrupol]     -1842.256993

 energy correction for charged system         0.000000 eV
 dipol+quadrupol energy correction           -0.000000 eV
 added-field ion interaction          0.003491 eV  (added to PSCEN)


 Free energy of the ion-electron system (eV)
  ---------------------------------------------------
  alpha Z        PSCENC =       597.55832632
  Ewald energy   TEWEN  =    141124.58868870
  -Hartree energ DENC   =   -165783.18563903
  -exchange      EXHF   =         0.00000000
  -V(xc)+E(xc)   XCENC  =      1208.16124107
  PAW double counting   =     21601.85621698   -22022.81956305
  entropy T*S    EENTRO =        -0.58694337
  eigenvalues    EBANDS =     -3239.56932219
  atomic energy  EATOM  =     27468.95917810
  Solvation  Ediel_sol  =         0.00000000
  ---------------------------------------------------
  free energy    TOTEN  =       954.96218353 eV

  energy without entropy =      955.54912690  energy(sigma->0) =      955.25565521


--------------------------------------------------------------------------------------------------------




--------------------------------------- Iteration      1(   3)  ---------------------------------------


     EDDAV:  cpu time      0.4693: real time      0.4778
       DOS:  cpu time      0.0004: real time      0.0004
    --------------------------------------------
      LOOP:  cpu time      0.4697: real time      0.4782

 eigenvalue-minimisations  :  1040
 total energy-change (2. order) :-0.1129541E+04  (-0.1085784E+04)
 number of electron     289.0000000 magnetization       9.0000000
 augmentation part      289.0000000 magnetization       9.0000000

 DIPCOR: dipole corrections for dipol
 direction  3 min pos   213,
 dipolmoment           0.000000      0.000000      0.000111 electrons x Angstroem
 Tr[quadrupol]     -1842.256993

 energy correction for charged system         0.000000 eV
 dipol+quadrupol energy correction           -0.000000 eV
 added-field ion interaction          0.003491 eV  (added to PSCEN)


 Free energy of the ion-electron system (eV)
  ---------------------------------------------------
  alpha Z        PSCENC =       597.55832632
  Ewald energy   TEWEN  =    141124.58868870
  -Hartree energ DENC   =   -165783.18563903
  -exchange      EXHF   =         0.00000000
  -V(xc)+E(xc)   XCENC  =      1208.16124107
  PAW double counting   =     21601.85621698   -22022.81956305
  entropy T*S    EENTRO =        -1.05383648
  eigenvalues    EBANDS =     -4368.64366991
  atomic energy  EATOM  =     27468.95917810
  Solvation  Ediel_sol  =         0.00000000
  ---------------------------------------------------
  free energy    TOTEN  =      -174.57905730 eV

  energy without entropy =     -173.52522082  energy(sigma->0) =     -174.05213906


--------------------------------------------------------------------------------------------------------




--------------------------------------- Iteration      1(   4)  ---------------------------------------


     EDDAV:  cpu time      0.5127: real time      0.5218
       DOS:  cpu time      0.0003: real time      0.0003
    --------------------------------------------
      LOOP:  cpu time      0.5130: real time      0.5221

 eigenvalue-minimisations  :  1160
 total energy-change (2. order) :-0.1828926E+03  (-0.1780960E+03)
 number of electron     289.0000000 magnetization       9.0000000
 augmentation part      289.0000000 magnetization       9.0000000

 DIPCOR: dipole corrections for dipol
 direction  3 min pos   213,
 dipolmoment           0.000000      0.000000      0.000111 electrons x Angstroem
 Tr[quadrupol]     -1842.256993

 energy correction for charged system         0.000000 eV
 dipol+quadrupol energy correction           -0.000000 eV
 added-field ion interaction          0.003491 eV  (added to PSCEN)


 Free energy of the ion-electron system (eV)
  ---------------------------------------------------
  alpha Z        PSCENC =       597.55832632
  Ewald energy   TEWEN  =    141124.58868870
  -Hartree energ DENC   =   -165783.18563903
  -exchange      EXHF   =         0.00000000
  -V(xc)+E(xc)   XCENC  =      1208.16124107
  PAW double counting   =     21601.85621698   -22022.81956305
  entropy T*S    EENTRO =        -1.54443371
  eigenvalues    EBANDS =     -4551.04571838
  atomic energy  EATOM  =     27468.95917810
  Solvation  Ediel_sol  =         0.00000000
  ---------------------------------------------------
  free energy    TOTEN  =      -357.47170300 eV

  energy without entropy =     -355.92726930  energy(sigma->0) =     -356.69948615


--------------------------------------------------------------------------------------------------------




--------------------------------------- Iteration      1(   5)  ---------------------------------------


     EDDAV:  cpu time      0.5880: real time      0.5975
       DOS:  cpu time      0.0003: real time      0.0003
    CHARGE:  cpu time      0.0192: real time      0.0193
    MIXING:  cpu time      0.0028: real time      0.0029
    --------------------------------------------
      LOOP:  cpu time      0.6104: real time      0.6200

 eigenvalue-minimisations  :  1340
 total energy-change (2. order) :-0.1207596E+02  (-0.1148771E+02)
 number of electron     289.0000196 magnetization       8.5665979
 augmentation part       49.2934608 magnetization       7.1707478

 DIPCOR: dipole corrections for dipol
 direction  3 min pos   213,
 dipolmoment           0.000000      0.000000      0.000111 electrons x Angstroem
 Tr[quadrupol]     -1842.256993

 energy correction for charged system         0.000000 eV
 dipol+quadrupol energy correction           -0.000000 eV
 added-field ion interaction          0.003491 eV  (added to PSCEN)


 Broyden mixing:
  rms(total) = 0.85803E+01    rms(broyden)= 0.85792E+01
  rms(prec ) = 0.91578E+01
  weight for this iteration     100.00

 Free energy of the ion-electron system (eV)
  ---------------------------------------------------
  alpha Z        PSCENC =       597.55832632
  Ewald energy   TEWEN  =    141124.58868870
  -Hartree energ DENC   =   -165783.18563903
  -exchange      EXHF   =         0.00000000
  -V(xc)+E(xc)   XCENC  =      1208.16124107
  PAW double counting   =     21601.85621698   -22022.81956305
  entropy T*S    EENTRO =        -1.37946374
  eigenvalues    EBANDS =     -4563.28665052
  atomic energy  EATOM  =     27468.95917810
  Solvation  Ediel_sol  =         0.00000000
  ---------------------------------------------------
  free energy    TOTEN  =      -369.54766517 eV

  energy without entropy =     -368.16820144  energy(sigma->0) =     -368.85793331


--------------------------------------------------------------------------------------------------------




--------------------------------------- Iteration      1(   6)  ---------------------------------------


    POTLOK:  cpu time      0.0308: real time      0.0395
    SETDIJ:  cpu time      0.9106: real time      0.9127
     EDDAV:  cpu time      0.5496: real time      0.5511
       DOS:  cpu time      0.0005: real time      0.0005
    CHARGE:  cpu time      0.0166: real time      0.0166
    MIXING:  cpu time      0.0017: real time      0.0017
    --------------------------------------------
      LOOP:  cpu time      1.5098: real time      1.5221

 eigenvalue-minimisations  :  1200
 total energy-change (2. order) :-0.2195091E+03  (-0.5914398E+03)
 number of electron     288.9999683 magnetization       8.5243418
 augmentation part       78.6992415 magnetization       5.0397708

 DIPCOR: dipole corrections for dipol
 direction  3 min pos   207,
 dipolmoment           0.000000      0.000000      1.323306 electrons x Angstroem
 Tr[quadrupol]     -1870.172165

 energy correction for charged system         0.000000 eV
 dipol+quadrupol energy correction           -0.171156 eV
 added-field ion interaction         -3.768546 eV  (added to PSCEN)


 Broyden mixing:
  rms(total) = 0.30425E+02    rms(broyden)= 0.30423E+02
  rms(prec ) = 0.31565E+02
  weight for this iteration     100.00

 eigenvalues of (default mixing * dielectric matrix)
  average eigenvalue GAMMA=   0.1009
  0.1009

 Free energy of the ion-electron system (eV)
  ---------------------------------------------------
  alpha Z        PSCENC =       593.61513363
  Ewald energy   TEWEN  =    141124.58868870
  -Hartree energ DENC   =   -166194.32864707
  -exchange      EXHF   =         0.00000000
  -V(xc)+E(xc)   XCENC  =      1208.70668428
  PAW double counting   =     22898.44392350   -23302.04375516
  entropy T*S    EENTRO =        -0.36196515
  eigenvalues    EBANDS =     -4386.63597110
  atomic energy  EATOM  =     27468.95917810
  Solvation  Ediel_sol  =         0.00000000
  ---------------------------------------------------
  free energy    TOTEN  =      -589.05673027 eV

  energy without entropy =     -588.69476512  energy(sigma->0) =     -588.87574769


--------------------------------------------------------------------------------------------------------




--------------------------------------- Iteration      1(   7)  ---------------------------------------


    POTLOK:  cpu time      0.0310: real time      0.0390
    SETDIJ:  cpu time      0.9075: real time      0.9096
     EDDAV:  cpu time      0.5773: real time      0.5785
       DOS:  cpu time      0.0003: real time      0.0003
    CHARGE:  cpu time      0.0161: real time      0.0161
    MIXING:  cpu time      0.0013: real time      0.0013
    --------------------------------------------
      LOOP:  cpu time      1.5334: real time      1.5448

 eigenvalue-minimisations  :  1320
 total energy-change (2. order) : 0.1713262E+03  (-0.1411130E+03)
 number of electron     288.9999804 magnetization       8.3667189
 augmentation part       70.9152283 magnetization       7.1421292

 DIPCOR: dipole corrections for dipol
 direction  3 min pos   205,
 dipolmoment           0.000000      0.000000      0.032213 electrons x Angstroem
 Tr[quadrupol]     -1858.993524

 energy correction for charged system         0.000000 eV
 dipol+quadrupol energy correction           -0.000101 eV
 added-field ion interaction         -0.459375 eV  (added to PSCEN)


 Broyden mixing:
  rms(total) = 0.15897E+02    rms(broyden)= 0.15895E+02
  rms(prec ) = 0.17145E+02
  weight for this iteration     100.00

 eigenvalues of (default mixing * dielectric matrix)
  average eigenvalue GAMMA=   0.2548
  0.2548  0.2548

 Free energy of the ion-electron system (eV)
  ---------------------------------------------------
  alpha Z        PSCENC =       597.09535873
  Ewald energy   TEWEN  =    141124.58868870
  -Hartree energ DENC   =   -165992.70998308
  -exchange      EXHF   =         0.00000000
  -V(xc)+E(xc)   XCENC  =      1211.80268771
  PAW double counting   =     24703.18373815   -25127.66043628
  entropy T*S    EENTRO =        -0.45923094
  eigenvalues    EBANDS =     -4402.53056537
  atomic energy  EATOM  =     27468.95917810
  Solvation  Ediel_sol  =         0.00000000
  ---------------------------------------------------
  free energy    TOTEN  =      -417.73056430 eV

  energy without entropy =     -417.27133336  energy(sigma->0) =     -417.50094883


--------------------------------------------------------------------------------------------------------




--------------------------------------- Iteration      1(   8)  ---------------------------------------


    POTLOK:  cpu time      0.0300: real time      0.0386
    SETDIJ:  cpu time      0.9093: real time      0.9113
     EDDAV:  cpu time      0.5984: real time      0.5996
       DOS:  cpu time      0.0005: real time      0.0005
    CHARGE:  cpu time      0.0169: real time      0.0169
    MIXING:  cpu time      0.0013: real time      0.0013
    --------------------------------------------
      LOOP:  cpu time      1.5563: real time      1.5683

 eigenvalue-minimisations  :  1320
 total energy-change (2. order) :-0.7023365E+03  (-0.5296002E+03)
 number of electron     288.9999939 magnetization       8.3684273
 augmentation part       61.0777024 magnetization       5.8514709

 DIPCOR: dipole corrections for dipol
 direction  3 min pos   204,
 dipolmoment           0.000000      0.000000      4.869597 electrons x Angstroem
 Tr[quadrupol]     -1847.385007

 energy correction for charged system         0.000000 eV
 dipol+quadrupol energy correction           -2.317702 eV
 added-field ion interaction        -97.230271 eV  (added to PSCEN)


 Broyden mixing:
  rms(total) = 0.75853E+02    rms(broyden)= 0.75853E+02
  rms(prec ) = 0.78692E+02
  weight for this iteration     100.00

 eigenvalues of (default mixing * dielectric matrix)
  average eigenvalue GAMMA=   0.1780
  0.2586  0.2586  0.0166

 Free energy of the ion-electron system (eV)
  ---------------------------------------------------
  alpha Z        PSCENC =       498.00686230
  Ewald energy   TEWEN  =    141124.58868870
  -Hartree energ DENC   =   -165924.34026060
  -exchange      EXHF   =         0.00000000
  -V(xc)+E(xc)   XCENC  =      1216.56196890
  PAW double counting   =     27602.57828884   -28040.98028272
  entropy T*S    EENTRO =        -0.20004046
  eigenvalues    EBANDS =     -5065.24145262
  atomic energy  EATOM  =     27468.95917810
  Solvation  Ediel_sol  =         0.00000000
  ---------------------------------------------------
  free energy    TOTEN  =     -1120.06704957 eV

  energy without entropy =    -1119.86700910  energy(sigma->0) =    -1119.96702934


--------------------------------------------------------------------------------------------------------




--------------------------------------- Iteration      1(   9)  ---------------------------------------


    POTLOK:  cpu time      0.0309: real time      0.0394
    SETDIJ:  cpu time      0.9087: real time      0.9108
     EDDAV:  cpu time      0.5618: real time      0.5632
       DOS:  cpu time      0.0003: real time      0.0003
    CHARGE:  cpu time      0.0159: real time      0.0159
    MIXING:  cpu time      0.0013: real time      0.0013
    --------------------------------------------
      LOOP:  cpu time      1.5190: real time      1.5309

 eigenvalue-minimisations  :  1280
 total energy-change (2. order) :-0.2629836E+03  (-0.1046151E+03)
 number of electron     288.9999951 magnetization       8.2911093
 augmentation part       62.9981935 magnetization       5.2966463

 DIPCOR: dipole corrections for dipol
 direction  3 min pos   203,
 dipolmoment           0.000000      0.000000      5.341268 electrons x Angstroem
 Tr[quadrupol]     -1846.038449

 energy correction for charged system         0.000000 eV
 dipol+quadrupol energy correction           -2.788433 eV
 added-field ion interaction       -137.127036 eV  (added to PSCEN)


 Broyden mixing:
  rms(total) = 0.13105E+03    rms(broyden)= 0.13105E+03
  rms(prec ) = 0.13358E+03
  weight for this iteration     100.00

 eigenvalues of (default mixing * dielectric matrix)
  average eigenvalue GAMMA=   0.1454
  0.2702  0.2702  0.0205  0.0205

 Free energy of the ion-electron system (eV)
  ---------------------------------------------------
  alpha Z        PSCENC =       457.63936540
  Ewald energy   TEWEN  =    141124.58868870
  -Hartree energ DENC   =   -165931.79642998
  -exchange      EXHF   =         0.00000000
  -V(xc)+E(xc)   XCENC  =      1216.65885692
  PAW double counting   =     26703.40891812   -27142.15134879
  entropy T*S    EENTRO =        -0.60837178
  eigenvalues    EBANDS =     -5279.74953698
  atomic energy  EATOM  =     27468.95917810
  Solvation  Ediel_sol  =         0.00000000
  ---------------------------------------------------
  free energy    TOTEN  =     -1383.05068029 eV

  energy without entropy =    -1382.44230851  energy(sigma->0) =    -1382.74649440


--------------------------------------------------------------------------------------------------------




--------------------------------------- Iteration      1(  10)  ---------------------------------------


    POTLOK:  cpu time      0.0301: real time      0.0388
    SETDIJ:  cpu time      0.9081: real time      0.9102
     EDDAV:  cpu time      0.4872: real time      0.4882
       DOS:  cpu time      0.0003: real time      0.0003
    CHARGE:  cpu time      0.0161: real time      0.0162
    MIXING:  cpu time      0.0013: real time      0.0013
    --------------------------------------------
      LOOP:  cpu time      1.4432: real time      1.4550

 eigenvalue-minimisations  :  1100
 total energy-change (2. order) : 0.6010292E+03  (-0.3665925E+02)
 number of electron     288.9999959 magnetization       8.2657593
 augmentation part       60.1502581 magnetization       4.5377315

 DIPCOR: dipole corrections for dipol
 direction  3 min pos   203,
 dipolmoment           0.000000      0.000000      3.301218 electrons x Angstroem
 Tr[quadrupol]     -1847.388231

 energy correction for charged system         0.000000 eV
 dipol+quadrupol energy correction           -1.065173 eV
 added-field ion interaction        -84.752581 eV  (added to PSCEN)


 Broyden mixing:
  rms(total) = 0.16504E+02    rms(broyden)= 0.16503E+02
  rms(prec ) = 0.26811E+02
  weight for this iteration     100.00

 eigenvalues of (default mixing * dielectric matrix)
  average eigenvalue GAMMA=   0.1517
  0.2851  0.2851  0.0854  0.0854  0.0175

 Free energy of the ion-electron system (eV)
  ---------------------------------------------------
  alpha Z        PSCENC =       511.73708199
  Ewald energy   TEWEN  =    141124.58868870
  -Hartree energ DENC   =   -165959.24730704
  -exchange      EXHF   =         0.00000000
  -V(xc)+E(xc)   XCENC  =      1216.53843992
  PAW double counting   =     26583.77677283   -27027.69616041
  entropy T*S    EENTRO =        -0.49839797
  eigenvalues    EBANDS =     -4700.17973030
  atomic energy  EATOM  =     27468.95917810
  Solvation  Ediel_sol  =         0.00000000
  ---------------------------------------------------
  free energy    TOTEN  =      -782.02143418 eV

  energy without entropy =     -781.52303622  energy(sigma->0) =     -781.77223520


--------------------------------------------------------------------------------------------------------




--------------------------------------- Iteration      1(  11)  ---------------------------------------


    POTLOK:  cpu time      0.0299: real time      0.0387
    SETDIJ:  cpu time      0.9068: real time      0.9088
     EDDAV:  cpu time      0.5064: real time      0.5075
       DOS:  cpu time      0.0003: real time      0.0003
    CHARGE:  cpu time      0.0154: real time      0.0155
    MIXING:  cpu time      0.0013: real time      0.0013
    --------------------------------------------
      LOOP:  cpu time      1.4601: real time      1.4721

 eigenvalue-minimisations  :  1140
 total energy-change (2. order) : 0.5942413E+03  (-0.4322392E+03)
 number of electron     289.0000010 magnetization       8.2128992
 augmentation part       57.2921223 magnetization       7.3815411

 DIPCOR: dipole corrections for dipol
 direction  3 min pos   207,
 dipolmoment           0.000000      0.000000     -1.553367 electrons x Angstroem
 Tr[quadrupol]     -1842.292494

 energy correction for charged system         0.000000 eV
 dipol+quadrupol energy correction           -0.235841 eV
 added-field ion interaction          4.423719 eV  (added to PSCEN)


 Broyden mixing:
  rms(total) = 0.12077E+02    rms(broyden)= 0.12075E+02
  rms(prec ) = 0.13206E+02
  weight for this iteration     100.00

 eigenvalues of (default mixing * dielectric matrix)
  average eigenvalue GAMMA=   0.1406
  0.2927  0.2927  0.0799  0.0799  0.0812  0.0172

 Free energy of the ion-electron system (eV)
  ---------------------------------------------------
  alpha Z        PSCENC =       601.74271321
  Ewald energy   TEWEN  =    141124.58868870
  -Hartree energ DENC   =   -165753.07211735
  -exchange      EXHF   =         0.00000000
  -V(xc)+E(xc)   XCENC  =      1215.88205753
  PAW double counting   =     26139.28286581   -26586.18731603
  entropy T*S    EENTRO =        -0.17583364
  eigenvalues    EBANDS =     -4398.80033638
  atomic energy  EATOM  =     27468.95917810
  Solvation  Ediel_sol  =         0.00000000
  ---------------------------------------------------
  free energy    TOTEN  =      -187.78010005 eV

  energy without entropy =     -187.60426642  energy(sigma->0) =     -187.69218324


--------------------------------------------------------------------------------------------------------




--------------------------------------- Iteration      1(  12)  ---------------------------------------


    POTLOK:  cpu time      0.0381: real time      0.0383
    SETDIJ:  cpu time      0.9067: real time      0.9087
     EDDAV:  cpu time      0.5838: real time      0.5850
       DOS:  cpu time      0.0003: real time      0.0003
    CHARGE:  cpu time      0.0158: real time      0.0158
    MIXING:  cpu time      0.0014: real time      0.0014
    --------------------------------------------
      LOOP:  cpu time      1.5460: real time      1.5495

 eigenvalue-minimisations  :  1340
 total energy-change (2. order) :-0.1346657E+03  (-0.1685004E+03)
 number of electron     289.0000028 magnetization       8.1614441
 augmentation part       53.3815642 magnetization       6.0218919

 DIPCOR: dipole corrections for dipol
 direction  3 min pos   208,
 dipolmoment           0.000000      0.000000     -1.183348 electrons x Angstroem
 Tr[quadrupol]     -1849.009840

 energy correction for charged system         0.000000 eV
 dipol+quadrupol energy correction           -0.136866 eV
 added-field ion interaction         -3.382597 eV  (added to PSCEN)


 Broyden mixing:
  rms(total) = 0.79659E+01    rms(broyden)= 0.79636E+01
  rms(prec ) = 0.89053E+01
  weight for this iteration     100.00

 eigenvalues of (default mixing * dielectric matrix)
  average eigenvalue GAMMA=   0.1523
  0.3134  0.3134  0.0907  0.0907  0.1409  0.1000  0.0172

 Free energy of the ion-electron system (eV)
  ---------------------------------------------------
  alpha Z        PSCENC =       594.03537156
  Ewald energy   TEWEN  =    141124.58868870
  -Hartree energ DENC   =   -165977.21015970
  -exchange      EXHF   =         0.00000000
  -V(xc)+E(xc)   XCENC  =      1216.11681885
  PAW double counting   =     27047.60899163   -27496.67128796
  entropy T*S    EENTRO =        -0.32389371
  eigenvalues    EBANDS =     -4299.54945916
  atomic energy  EATOM  =     27468.95917810
  Solvation  Ediel_sol  =         0.00000000
  ---------------------------------------------------
  free energy    TOTEN  =      -322.44575169 eV

  energy without entropy =     -322.12185798  energy(sigma->0) =     -322.28380484


--------------------------------------------------------------------------------------------------------




--------------------------------------- Iteration      1(  13)  ---------------------------------------


    POTLOK:  cpu time      0.0299: real time      0.0383
    SETDIJ:  cpu time      0.9085: real time      0.9105
     EDDAV:  cpu time      0.5394: real time      0.5407
       DOS:  cpu time      0.0003: real time      0.0005
    CHARGE:  cpu time      0.0164: real time      0.0164
    MIXING:  cpu time      0.0017: real time      0.0017
    --------------------------------------------
      LOOP:  cpu time      1.4962: real time      1.5082

 eigenvalue-minimisations  :  1180
 total energy-change (2. order) :-0.2240706E+02  (-0.5297028E+02)
 number of electron     289.0000108 magnetization       8.0268234
 augmentation part       53.2107828 magnetization       6.6661826

 DIPCOR: dipole corrections for dipol
 direction  3 min pos   209,
 dipolmoment           0.000000      0.000000     -0.838477 electrons x Angstroem
 Tr[quadrupol]     -1846.260411

 energy correction for charged system         0.000000 eV
 dipol+quadrupol energy correction           -0.068715 eV
 added-field ion interaction         -7.181410 eV  (added to PSCEN)


 Broyden mixing:
  rms(total) = 0.78708E+01    rms(broyden)= 0.78695E+01
  rms(prec ) = 0.88541E+01
  weight for this iteration     100.00

 eigenvalues of (default mixing * dielectric matrix)
  average eigenvalue GAMMA=   0.1797
  0.5366  0.2404  0.2404  0.0967  0.0967  0.1334  0.0763  0.0172

 Free energy of the ion-electron system (eV)
  ---------------------------------------------------
  alpha Z        PSCENC =       590.30471011
  Ewald energy   TEWEN  =    141124.58868870
  -Hartree energ DENC   =   -165919.38253484
  -exchange      EXHF   =         0.00000000
  -V(xc)+E(xc)   XCENC  =      1216.60683883
  PAW double counting   =     27421.66233194   -27870.98663934
  entropy T*S    EENTRO =        -0.25996277
  eigenvalues    EBANDS =     -4376.34542527
  atomic energy  EATOM  =     27468.95917810
  Solvation  Ediel_sol  =         0.00000000
  ---------------------------------------------------
  free energy    TOTEN  =      -344.85281454 eV

  energy without entropy =     -344.59285176  energy(sigma->0) =     -344.72283315


--------------------------------------------------------------------------------------------------------




--------------------------------------- Iteration      1(  14)  ---------------------------------------


    POTLOK:  cpu time      0.0305: real time      0.0396
    SETDIJ:  cpu time      0.9064: real time      0.9087
     EDDAV:  cpu time      0.5280: real time      0.5290
       DOS:  cpu time      0.0003: real time      0.0003
    CHARGE:  cpu time      0.0157: real time      0.0158
    MIXING:  cpu time      0.0016: real time      0.0016
    --------------------------------------------
      LOOP:  cpu time      1.4825: real time      1.4950

 eigenvalue-minimisations  :  1200
 total energy-change (2. order) : 0.2684836E+02  (-0.1791074E+02)
 number of electron     289.0000023 magnetization       7.9260242
 augmentation part       52.2302028 magnetization       6.3269636

 DIPCOR: dipole corrections for dipol
 direction  3 min pos   203,
 dipolmoment           0.000000      0.000000     -0.894579 electrons x Angstroem
 Tr[quadrupol]     -1845.387313

 energy correction for charged system         0.000000 eV
 dipol+quadrupol energy correction           -0.078218 eV
 added-field ion interaction         22.966633 eV  (added to PSCEN)


 Broyden mixing:
  rms(total) = 0.50219E+01    rms(broyden)= 0.50193E+01
  rms(prec ) = 0.64107E+01
  weight for this iteration     100.00

 eigenvalues of (default mixing * dielectric matrix)
  average eigenvalue GAMMA=   0.2084
  0.4896  0.4140  0.2844  0.2844  0.0943  0.0943  0.1226  0.0750  0.0172

 Free energy of the ion-electron system (eV)
  ---------------------------------------------------
  alpha Z        PSCENC =       620.44325021
  Ewald energy   TEWEN  =    141124.58868870
  -Hartree energ DENC   =   -165945.81320653
  -exchange      EXHF   =         0.00000000
  -V(xc)+E(xc)   XCENC  =      1219.56608394
  PAW double counting   =     27410.70342152   -27863.03994767
  entropy T*S    EENTRO =        -0.38049955
  eigenvalues    EBANDS =     -4353.03142741
  atomic energy  EATOM  =     27468.95917810
  Solvation  Ediel_sol  =         0.00000000
  ---------------------------------------------------
  free energy    TOTEN  =      -318.00445868 eV

  energy without entropy =     -317.62395913  energy(sigma->0) =     -317.81420891


[...]
   28        1.528   3.538   0.000   0.000   5.066
   29        1.562   3.556   0.000   0.000   5.118
   30        1.564   3.520   0.000   0.000   5.083
   31        1.526   3.486   0.000   0.000   5.012
   32        1.567   3.448   0.000   0.000   5.015
   33        1.613   3.433   0.000   0.000   5.045
   34        1.554   3.442   0.000   0.000   4.996
   35        1.578   3.507   0.000   0.000   5.086
   36        0.595   0.068   0.000   0.000   0.663
--------------------------------------------------
tot         47.859 158.039  35.810   1.502 243.211



 magnetization (x)

# of ion       s       p       d       f       tot
--------------------------------------------------
    1        0.009  -0.001  -1.619   0.000  -1.611
    2       -0.001  -0.005  -1.839   0.000  -1.845
    3        0.004   0.001   0.061   0.000   0.067
    4        0.019   0.025   2.509   0.000   2.553
    5        0.019   0.022   2.567   0.000   2.608
    6        0.019   0.024   2.629   0.000   2.671
    7       -0.007  -0.008  -1.172   0.000  -1.187
    8        0.019   0.021   2.267   0.000   2.307
    9        0.000  -0.002  -0.003  -0.013  -0.018
   10        0.000  -0.001  -0.007  -0.015  -0.023
   11        0.000  -0.001   0.012   0.010   0.022
   12       -0.000  -0.001   0.009   0.009   0.017
   13       -0.000  -0.002   0.008   0.005   0.011
   14       -0.000  -0.002   0.005   0.006   0.009
   15       -0.001   0.012   0.000   0.000   0.011
   16       -0.001   0.008   0.000   0.000   0.007
   17        0.002   0.023   0.000   0.000   0.024
   18        0.000  -0.014   0.000   0.000  -0.014
   19       -0.001  -0.009   0.000   0.000  -0.009
   20        0.001  -0.048   0.000   0.000  -0.048
   21        0.001  -0.045   0.000   0.000  -0.044
   22        0.000  -0.005   0.000   0.000  -0.005
   23        0.000   0.034   0.000   0.000   0.034
   24       -0.000   0.034   0.000   0.000   0.033
   25        0.001  -0.015   0.000   0.000  -0.014
   26        0.001  -0.011   0.000   0.000  -0.011
   27        0.001  -0.007   0.000   0.000  -0.006
   28        0.001  -0.014   0.000   0.000  -0.013
   29       -0.001  -0.026   0.000   0.000  -0.027
   30        0.000   0.027   0.000   0.000   0.027
   31        0.002   0.003   0.000   0.000   0.005
   32       -0.000  -0.035   0.000   0.000  -0.035
   33        0.003   0.008   0.000   0.000   0.011
   34        0.000  -0.033   0.000   0.000  -0.033
   35       -0.000  -0.020   0.000   0.000  -0.021
   36       -0.001  -0.000   0.000   0.000  -0.001
--------------------------------------------------
tot          0.088  -0.065   5.427   0.004   5.453
 
    CHARGE:  cpu time      0.0154: real time      0.0154
    FORLOC:  cpu time      0.0034: real time      0.0034
    FORNL :  cpu time      0.0665: real time      0.0666
    STRESS:  cpu time      0.2002: real time      0.2006
    FORCOR:  cpu time      0.0311: real time      0.0312
    FORHAR:  cpu time      0.0058: real time      0.0058
    MIXING:  cpu time      0.0031: real time      0.0031
    OFIELD:  cpu time      0.0000: real time      0.0000

  FORCE on cell =-STRESS in cart. coord.  units (eV):
  Direction    XX          YY          ZZ          XY          YZ          ZX
  --------------------------------------------------------------------------------------
  Alpha Z   597.55484   597.55484   597.55484
  Ewald  153829.49137153323.59435************     5.72940    77.13109   -94.87273
  Hartree160548.72903160405.99984************     6.33022    27.67055   -69.33226
  E(xc)   -1395.99250 -1397.57007 -1396.66274     0.00795     0.30789    -0.12123
  Local  ************************317876.55701   -10.66050   -99.96119   163.01738
  n-local   153.14432   144.44418   142.18933    -1.50370    -1.33743     0.42024
  augment   615.24417   621.77626   612.02190     0.01326     0.61454     1.06233
  Kinetic  4997.99442  5002.41533  4935.41287    -0.01160    -1.81850     0.05359
  Fock        0.00000     0.00000     0.00000     0.00000     0.00000     0.00000
  -------------------------------------------------------------------------------------
  Total      15.80902     4.75969   -32.43672    -0.09498     2.60697     0.22732
  in kB      27.36221     8.23805   -56.14137    -0.16439     4.51214     0.39344
  external pressure =       -6.85 kB  Pullay stress =        0.00 kB


 VOLUME and BASIS-vectors are now :
 -----------------------------------------------------------------------------
  energy-cutoff  :      400.00
  volume of cell :      925.69
      direct lattice vectors                 reciprocal lattice vectors
     5.536700000  0.000000000  0.000000000     0.180613001  0.000000000  0.000000000
     0.000000000  5.747300000  0.000000000     0.000000000  0.173994745  0.000000000
     0.000000000  0.000000000 29.090392640     0.000000000  0.000000000  0.034375610

  length of vectors
     5.536700000  5.747300000 29.090392640     0.180613001  0.173994745  0.034375610


 FORCES acting on ions
    electron-ion (+dipol)            ewald-force                    non-local-force                 convergence-correction
 -----------------------------------------------------------------------------------------------
   -.248E+03 -.372E+02 0.453E+04   0.244E+03 0.366E+02 -.452E+04   0.179E+01 0.228E+01 -.852E+01   0.648E+00 -.453E+00 0.299E+01
   0.248E+03 -.378E+02 0.453E+04   -.244E+03 0.366E+02 -.452E+04   -.183E+01 0.266E+01 -.769E+01   -.592E+00 -.436E+00 0.302E+01
   0.731E+01 0.128E+00 0.185E+04   -.716E+01 -.657E-01 -.183E+04   -.115E+00 -.126E+00 -.624E+00   -.159E+00 0.126E-01 -.180E+02
   -.743E+01 0.179E+00 0.185E+04   0.711E+01 -.156E+00 -.183E+04   0.217E+00 -.832E-01 -.737E+00   0.209E+00 0.600E-02 -.177E+02
   -.536E-01 -.392E+01 -.112E+04   0.104E+01 0.297E+01 0.114E+04   -.365E+00 -.366E-01 -.712E+00   -.238E+00 0.269E+00 -.260E+02
   0.289E+01 -.357E+01 -.111E+04   -.364E+01 0.291E+01 0.113E+04   0.967E-02 -.555E-01 0.475E+00   0.402E+00 0.246E+00 -.276E+02
   -.125E+03 0.478E+02 -.411E+04   0.122E+03 -.432E+02 0.412E+04   0.232E+01 -.273E+01 0.420E+01   0.525E+00 -.101E+01 -.790E+01
   0.106E+03 0.567E+02 -.396E+04   -.103E+03 -.512E+02 0.397E+04   -.255E+01 -.468E+01 -.421E+01   -.780E+00 0.822E+00 -.384E+01
   0.724E+02 0.488E+02 0.306E+04   -.716E+02 -.487E+02 -.305E+04   0.752E+00 -.175E+01 0.213E+00   -.414E+00 0.506E+00 -.828E+01
   -.723E+02 0.491E+02 0.306E+04   0.716E+02 -.487E+02 -.305E+04   -.711E+00 -.171E+01 0.168E+00   0.158E+00 0.247E+00 -.837E+01
   -.123E+02 -.556E+02 0.341E+03   0.123E+02 0.546E+02 -.319E+03   -.530E+00 0.202E+01 -.232E+00   0.232E-01 -.984E-01 -.218E+02
   0.121E+02 -.558E+02 0.341E+03   -.118E+02 0.549E+02 -.319E+03   0.382E+00 0.198E+01 -.238E+00   0.151E-02 -.187E+00 -.219E+02
   0.139E+02 0.372E+02 -.241E+04   -.136E+02 -.361E+02 0.243E+04   -.226E+00 -.484E+00 -.484E+00   0.192E+00 -.503E+00 -.214E+02
   -.165E+02 0.298E+02 -.240E+04   0.156E+02 -.295E+02 0.243E+04   0.750E+00 -.309E+00 -.342E+00   -.348E+00 0.288E-01 -.220E+02
   -.879E+02 0.214E+02 0.213E+04   0.952E+02 -.245E+02 -.214E+04   -.196E+01 0.212E+01 0.618E+01   -.143E+01 0.820E+00 -.378E+00
   0.894E+02 0.228E+02 0.213E+04   -.952E+02 -.245E+02 -.214E+04   0.184E+01 0.228E+01 0.619E+01   0.698E-01 -.899E+00 -.228E+00
   0.761E+02 -.178E+02 0.168E+04   -.778E+02 0.186E+02 -.167E+04   0.942E+00 0.119E+00 -.298E+01   0.756E+00 0.105E+00 -.549E+01
   -.761E+02 -.177E+02 0.168E+04   0.778E+02 0.186E+02 -.167E+04   -.120E+01 -.150E+00 -.372E+01   -.298E+00 0.799E-01 -.459E+01
   0.698E+02 0.279E+02 0.105E+04   -.745E+02 -.297E+02 -.105E+04   -.387E-01 0.144E+01 -.440E+01   0.244E+00 -.226E+00 -.787E+01
   -.694E+02 0.272E+02 0.105E+04   0.745E+02 -.298E+02 -.105E+04   -.467E+00 0.207E+01 -.452E+01   -.700E+00 0.287E+00 -.795E+01
   0.683E+02 -.275E+02 0.796E+03   -.735E+02 0.298E+02 -.785E+03   -.935E+00 -.283E+01 -.145E+01   0.682E+00 -.236E+00 -.956E+01
   -.686E+02 -.280E+02 0.796E+03   0.734E+02 0.297E+02 -.785E+03   0.145E+01 -.217E+01 -.149E+01   -.265E+00 0.147E+00 -.960E+01
   -.434E+02 0.184E+02 0.179E+03   0.453E+02 -.193E+02 -.165E+03   -.228E+01 -.197E+01 -.448E+01   -.227E+00 0.191E-02 -.130E+02
   0.431E+02 0.189E+02 0.176E+03   -.454E+02 -.197E+02 -.163E+03   0.236E+01 -.182E+01 -.439E+01   0.283E+00 -.596E-01 -.121E+02
   -.582E+02 -.130E+02 -.421E+03   0.631E+02 0.140E+02 0.433E+03   -.897E+00 0.228E+01 -.151E+01   -.552E+00 -.593E+00 -.129E+02
   0.593E+02 -.144E+02 -.421E+03   -.632E+02 0.146E+02 0.433E+03   0.122E+01 0.199E+01 -.247E+01   -.475E+00 0.540E+00 -.130E+02
   -.645E+02 0.267E+02 -.682E+03   0.688E+02 -.276E+02 0.697E+03   -.397E+01 0.425E+01 -.347E+01   0.614E+00 -.763E+00 -.131E+02
   0.605E+02 0.208E+02 -.681E+03   -.657E+02 -.225E+02 0.696E+03   0.359E+01 0.350E+01 -.346E+01   0.579E+00 0.539E+00 -.131E+02
   0.459E+02 -.386E+01 -.128E+04   -.480E+02 0.425E+01 0.129E+04   0.696E+01 0.222E+01 0.318E+01   -.842E+00 -.534E+00 -.166E+02
   -.360E+02 -.770E+01 -.133E+04   0.380E+02 0.754E+01 0.135E+04   -.394E+01 0.437E+00 -.330E+01   -.121E+00 0.288E+00 -.131E+02
   0.125E+02 -.207E+02 -.192E+04   -.136E+02 0.208E+02 0.193E+04   0.221E+01 -.295E+01 -.103E+02   0.217E+01 0.338E+01 -.599E+01
   -.110E+02 -.278E+02 -.192E+04   0.996E+01 0.314E+02 0.193E+04   -.397E+01 -.744E+01 -.100E+02   0.215E+01 -.152E+01 -.601E+01
   0.122E+03 -.276E+02 -.216E+04   -.130E+03 0.293E+02 0.217E+04   0.107E+02 -.466E+00 -.163E+02   -.508E+01 0.281E+01 -.380E+00
   -.156E+03 -.496E+02 -.211E+04   0.168E+03 0.516E+02 0.213E+04   -.156E+02 0.457E+01 -.163E+02   0.326E+00 -.197E+01 -.134E+01
   0.461E+02 0.160E+02 -.237E+04   -.477E+02 -.320E+02 0.234E+04   0.328E+01 0.116E+02 0.180E+02   -.506E+00 -.686E-01 0.702E+01
   -.706E+00 -.263E+02 -.419E+03   0.106E+01 0.286E+02 0.424E+03   -.457E-01 -.324E+01 -.806E+01   -.191E-01 -.390E-01 0.102E+01
 -----------------------------------------------------------------------------------------------
   0.204E+01 -.616E+01 0.411E+03   -.167E-12 -.284E-13 -.341E-11   -.835E+00 0.128E+02 -.879E+02   -.302E+01 0.154E+01 -.357E+03
 
 
 POSITION                                       TOTAL-FORCE (eV/Angst)
 -----------------------------------------------------------------------------------
      0.00000      2.87365      0.10000        -1.190006      0.998371      3.508934
      2.76835      0.00000      0.10000         1.334362      0.788638      3.669114
      2.76835      0.00000      3.94645        -0.077366     -0.278663      1.463364
      0.00000      2.87365      3.94645         0.160776     -0.281583      1.450576
      0.00018      2.89356      7.82860         0.434193     -0.943361      1.840141
      2.77538      0.01686      7.82525        -0.294745     -0.700150      1.503947
      2.63185      0.05410     11.58089        -0.091412      0.587827      0.245932
      0.09666      2.94059     11.81429        -0.574780      1.403102      2.682645
      2.81154      3.15527      2.02323         1.180227     -1.422940      1.277006
      5.49351      0.28162      2.02323        -1.174867     -1.314899      1.265870
      2.72516      2.59203      5.86967        -0.479573      0.733632      1.139410
      0.04319      5.46568      5.86967         0.712588      0.659843      1.140873
      2.85523      3.12500      9.76546         0.328713     -0.102852      2.910120
      5.44935      0.25173      9.76109        -0.458689     -0.173455      2.869858
      4.28762      4.63577      0.39541         3.894915     -0.391714      2.774805
      4.01743      1.76212      0.39541        -3.831672     -0.583987      2.867763
      2.35587      5.67488      2.02323         0.076606      0.741356     -0.960078
      0.41248      2.80123      2.02323         0.263433      0.566911     -1.428221
      4.01743      1.76212      3.65104        -4.409193     -0.786049     -4.859268
      4.28762      4.63577      3.65104         4.019877     -0.399692     -4.795008
      1.24908      1.11153      4.24186        -5.395049     -1.002620      1.430881
      1.51927      3.98518      4.24186         5.980925     -0.599311      1.506885
      3.18083      0.07242      5.86967        -0.594693     -3.046068     -2.612274
      5.12422      2.94607      5.86967         0.388778     -2.963550     -2.260855
      1.56113      4.01916      7.50118         3.489344      2.460147     -1.773672
      1.20847      1.14507      7.50345        -3.189413      2.441832     -2.609293
      4.35373      4.70297      8.09931         0.916322      2.391834     -1.002670
      3.95396      1.82851      8.09846        -0.996531      2.119662     -0.900215
      2.35492      5.68500      9.70004         4.002830      1.847340      1.818861
      0.41569      2.80489      9.69228        -2.022997      0.332368      2.003956
      3.94129      1.63874     11.33605         3.378179      0.281707     -4.209761
      4.35883      4.55703     11.35793        -2.849647     -5.636403     -4.282103
      1.20745      0.96642     11.96674        -1.902370      3.818824     -3.277001
      1.60200      3.87762     11.94347        -2.607937      4.461352     -4.526512
      5.50278      2.91811     13.66720         1.235327     -4.787358      1.411832
      0.00580      3.24193     14.60831         0.343545     -1.220090     -1.285840
 -----------------------------------------------------------------------------------
    total drift:                               -1.810195      8.186042    -33.919030


--------------------------------------------------------------------------------------------------------



  FREE ENERGIE OF THE ION-ELECTRON SYSTEM (eV)
  ---------------------------------------------------
  free  energy   TOTEN  =      -288.24577043 eV

  energy  without entropy=     -287.92995366  energy(sigma->0) =     -288.08786204
 
 d Force =-0.3948359E-01[-0.944E+00, 0.865E+00]  d Energy = 0.6980806E-01-0.109E+00
 d Force = 0.3918684E+03[ 0.389E+03, 0.395E+03]  d Ewald  = 0.3918480E+03 0.204E-01


--------------------------------------------------------------------------------------------------------


    POTLOK:  cpu time      0.9378: real time      0.9399


--------------------------------------------------------------------------------------------------------


 stress matrix after NEB project (eV)
     15.80902     -0.09500      0.22732
     -0.09498      4.75969      2.61036
      0.22774      2.60697    -32.43672
  FORCES: max atom, RMS     7.630592    2.965975
  FORCE total and by dimension   17.795853    5.636403
  Stress total and by dimension   36.584864   32.436717


--------------------------------------------------------------------------------------------------------


     LOOP+:  cpu time     44.7279: real time     45.0127
 vacuum level on the upper side and lower side of the slab         6.104         3.990
    4ORBIT:  cpu time      0.0000: real time      0.0000



 total charge

# of ion       s       p       d       f       tot
--------------------------------------------------
    1        0.265   6.175   4.037   0.000  10.477
    2        0.265   6.176   3.984   0.000  10.424
    3        0.293   6.360   4.004   0.000  10.658
    4        0.281   6.358   4.034   0.000  10.672
    5        0.286   6.350   4.006   0.000  10.642
    6        0.281   6.344   4.045   0.000  10.670
    7        0.305   6.331   4.325   0.000  10.961
    8        0.280   6.325   4.061   0.000  10.666
    9        2.005   5.716   0.557   0.249   8.527
   10        2.005   5.715   0.556   0.248   8.524
   11        2.001   5.725   0.546   0.251   8.523
   12        2.001   5.725   0.546   0.251   8.523
   13        2.002   5.713   0.552   0.253   8.520
   14        2.003   5.715   0.558   0.250   8.526
   15        1.603   3.411   0.000   0.000   5.014
   16        1.602   3.406   0.000   0.000   5.009
   17        1.563   3.492   0.000   0.000   5.055
   18        1.562   3.501   0.000   0.000   5.063
   19        1.588   3.482   0.000   0.000   5.070
   20        1.590   3.475   0.000   0.000   5.065
   21        1.588   3.485   0.000   0.000   5.073
   22        1.586   3.491   0.000   0.000   5.078
   23        1.565   3.523   0.000   0.000   5.088
   24        1.563   3.530   0.000   0.000   5.093
   25        1.581   3.489   0.000   0.000   5.069
   26        1.581   3.486   0.000   0.000   5.067
   27        1.527   3.542   0.000   0.000   5.069
   28        1.528   3.538   0.000   0.000   5.066
   29        1.562   3.556   0.000   0.000   5.118
   30        1.564   3.520   0.000   0.000   5.083
   31        1.526   3.486   0.000   0.000   5.012
   32        1.567   3.448   0.000   0.000   5.015
   33        1.613   3.433   0.000   0.000   5.045
   34        1.554   3.442   0.000   0.000   4.996
   35        1.578   3.507   0.000   0.000   5.086
   36        0.595   0.068   0.000   0.000   0.663
--------------------------------------------------
tot         47.859 158.039  35.810   1.502 243.211



 magnetization (x)

# of ion       s       p       d       f       tot
--------------------------------------------------
    1        0.009  -0.001  -1.619   0.000  -1.611
    2       -0.001  -0.005  -1.839   0.000  -1.845
    3        0.004   0.001   0.061   0.000   0.067
    4        0.019   0.025   2.509   0.000   2.553
    5        0.019   0.022   2.567   0.000   2.608
    6        0.019   0.024   2.629   0.000   2.671
    7       -0.007  -0.008  -1.172   0.000  -1.187
    8        0.019   0.021   2.267   0.000   2.307
    9        0.000  -0.002  -0.003  -0.013  -0.018
   10        0.000  -0.001  -0.007  -0.015  -0.023
   11        0.000  -0.001   0.012   0.010   0.022
   12       -0.000  -0.001   0.009   0.009   0.017
   13       -0.000  -0.002   0.008   0.005   0.011
   14       -0.000  -0.002   0.005   0.006   0.009
   15       -0.001   0.012   0.000   0.000   0.011
   16       -0.001   0.008   0.000   0.000   0.007
   17        0.002   0.023   0.000   0.000   0.024
   18        0.000  -0.014   0.000   0.000  -0.014
   19       -0.001  -0.009   0.000   0.000  -0.009
   20        0.001  -0.048   0.000   0.000  -0.048
   21        0.001  -0.045   0.000   0.000  -0.044
   22        0.000  -0.005   0.000   0.000  -0.005
   23        0.000   0.034   0.000   0.000   0.034
   24       -0.000   0.034   0.000   0.000   0.033
   25        0.001  -0.015   0.000   0.000  -0.014
   26        0.001  -0.011   0.000   0.000  -0.011
   27        0.001  -0.007   0.000   0.000  -0.006
   28        0.001  -0.014   0.000   0.000  -0.013
   29       -0.001  -0.026   0.000   0.000  -0.027
   30        0.000   0.027   0.000   0.000   0.027
   31        0.002   0.003   0.000   0.000   0.005
   32       -0.000  -0.035   0.000   0.000  -0.035
   33        0.003   0.008   0.000   0.000   0.011
   34        0.000  -0.033   0.000   0.000  -0.033
   35       -0.000  -0.020   0.000   0.000  -0.021
   36       -0.001  -0.000   0.000   0.000  -0.001
--------------------------------------------------
tot          0.088  -0.065   5.427   0.004   5.453
 

 total amount of memory used by VASP MPI-rank0    42941. kBytes
=======================================================================

   base      :      30000. kBytes
   nonlr-proj:       2305. kBytes
   fftplans  :       1875. kBytes
   grid      :       5378. kBytes
   one-center:        884. kBytes
   wavefun   :       2499. kBytes
 
  
  
 General timing and accounting informations for this job:
 ========================================================
  
                  Total CPU time used (sec):      223.454
                            User time (sec):      220.131
                          System time (sec):        3.323
                         Elapsed time (sec):      225.420
  
                   Maximum memory used (kb):      209368.
                   Average memory used (kb):          N/A
  
                          Minor page faults:        76342
                          Major page faults:            0
                 Voluntary context switches:         3672
