<?xml version="1.0" encoding="ISO-8859-1"?>
<modeling>
 <generator>
  <i name="program" type="string">vasp </i>
  <i name="version" type="string">6.4.3  </i>
  <i name="subversion" type="string">19Mar24 (build Jul 09 2024 15:45:28) complex                          parallel </i>
  <i name="platform" type="string">LinuxIFC </i>
  <i name="date" type="string">2024 10 29 </i>
  <i name="time" type="string">12:23:56 </i>
 </generator>
 <incar>
  <i type="string" name="PREC">Normal</i>
  <i type="string" name="ALGO">Normal</i>
  <i type="int" name="NSIM">    10</i>
  <i type="int" name="ISPIN">     2</i>
  <i type="int" name="NELM">    30</i>
  <i type="int" name="NELMIN">     5</i>
  <i type="int" name="IBRION">     2</i>
  <i name="EDIFF">      0.00010000</i>
  <i name="EDIFFG">     -0.10000000</i>
  <i type="int" name="NSW">     5</i>
  <i name="ENCUT">    400.00000000</i>
  <i name="POTIM">      0.15000000</i>
  <v name="MAGMOM">      1.00000000      1.00000000      1.00000000      1.00000000      1.00000000      1.00000000      1.00000000      1.00000000      0.00000000      0.00000000      0.00000000      0.00000000      0.00000000      0.00000000      0.00000000      0.00000000      0.00000000      0.00000000      0.00000000      0.00000000
      0.00000000      0.00000000      0.00000000      0.00000000      0.00000000      0.00000000      0.00000000      0.00000000      0.00000000      0.00000000      0.00000000      0.00000000      0.00000000      0.00000000      0.50000000      0.50000000</v>
  <i type="logical" name="LREAL"> T  </i>
  <i type="int" name="ISMEAR">     0</i>
  <i type="logical" name="KGAMMA"> T  </i>
  <i type="int" name="LMAXMIX">     6</i>
  <i type="logical" name="LWAVE"> F  </i>
  <i type="logical" name="LCHARG"> F  </i>
  <i type="int" name="LORBIT">    10</i>
  <i type="logical" name="LASPH"> T  </i>
  <i type="string" name="GGA">PE</i>
  <i type="logical" name="LDIPOL"> T  </i>
  <i type="int" name="IDIPOL">     3</i>
 </incar>
 <primitive_cell>
  <structure name="primitive_cell" >
   <crystal>
    <varray name="basis" >
     <v>       5.53670000       0.00000000       0.00000000 </v>
     <v>       0.00000000       5.74730000       0.00000000 </v>
     <v>       0.00000000       0.00000000      29.09039264 </v>
    </varray>
    <i name="volume">    925.68759245 </i>
    <varray name="rec_basis" >
     <v>       0.18061300       0.00000000       0.00000000 </v>
     <v>       0.00000000       0.17399475       0.00000000 </v>
     <v>       0.00000000       0.00000000       0.03437561 </v>
    </varray>
   </crystal>
   <varray name="positions" >
    <v>       0.00000000       0.50000000       0.00343756 </v>
    <v>       0.50000000       0.00000000       0.00343756 </v>
    <v>       0.50000000       0.00000000       0.13566163 </v>
    <v>       0.00000000       0.50000000       0.13566163 </v>
    <v>       0.99986929       0.49938438       0.26937126 </v>
    <v>       0.50013071       0.99938438       0.26937126 </v>
    <v>       0.48939587       0.00315503       0.40006453 </v>
    <v>       0.01060413       0.50315503       0.40006453 </v>
    <v>       0.50780000       0.54900000       0.06954959 </v>
    <v>       0.99220000       0.04900000       0.06954959 </v>
    <v>       0.49220000       0.45100000       0.20177366 </v>
    <v>       0.00780000       0.95100000       0.20177366 </v>
    <v>       0.50957389       0.54416646       0.33581737 </v>
    <v>       0.99042611       0.04416646       0.33581737 </v>
    <v>       0.77440000       0.80660000       0.01359237 </v>
    <v>       0.72560000       0.30660000       0.01359237 </v>
    <v>       0.42550000       0.98740000       0.06954959 </v>
    <v>       0.07450000       0.48740000       0.06954959 </v>
    <v>       0.72560000       0.30660000       0.12550682 </v>
    <v>       0.77440000       0.80660000       0.12550682 </v>
    <v>       0.22560000       0.19340000       0.14581644 </v>
    <v>       0.27440000       0.69340000       0.14581644 </v>
    <v>       0.57450000       0.01260000       0.20177366 </v>
    <v>       0.92550000       0.51260000       0.20177366 </v>
    <v>       0.28870533       0.69634117       0.25614362 </v>
    <v>       0.21129467       0.19634117       0.25614362 </v>
    <v>       0.79204805       0.80781865       0.27752619 </v>
    <v>       0.70795195       0.30781865       0.27752619 </v>
    <v>       0.42984338       0.00357119       0.33324504 </v>
    <v>       0.07015662       0.50357119       0.33324504 </v>
    <v>       0.71908670       0.30128723       0.38774270 </v>
    <v>       0.78091330       0.80128723       0.38774270 </v>
    <v>       0.21339458       0.19228727       0.40834875 </v>
    <v>       0.28660542       0.69228727       0.40834875 </v>
    <v>       0.00000000       0.49352618       0.47022484 </v>
    <v>       0.00000000       0.55179035       0.50185126 </v>
   </varray>
  </structure>
  <varray name="primitive_index" >
   <v type="int" >        1 </v>
   <v type="int" >        2 </v>
   <v type="int" >        3 </v>
   <v type="int" >        4 </v>
   <v type="int" >        5 </v>
   <v type="int" >        6 </v>
   <v type="int" >        7 </v>
   <v type="int" >        8 </v>
   <v type="int" >        9 </v>
   <v type="int" >       10 </v>
   <v type="int" >       11 </v>
   <v type="int" >       12 </v>
   <v type="int" >       13 </v>
   <v type="int" >       14 </v>
   <v type="int" >       15 </v>
   <v type="int" >       16 </v>
   <v type="int" >       17 </v>
   <v type="int" >       18 </v>
   <v type="int" >       19 </v>
   <v type="int" >       20 </v>
   <v type="int" >       21 </v>
   <v type="int" >       22 </v>
   <v type="int" >       23 </v>
   <v type="int" >       24 </v>
   <v type="int" >       25 </v>
   <v type="int" >       26 </v>
   <v type="int" >       27 </v>
   <v type="int" >       28 </v>
   <v type="int" >       29 </v>
   <v type="int" >       30 </v>
   <v type="int" >       31 </v>
   <v type="int" >       32 </v>
   <v type="int" >       33 </v>
   <v type="int" >       34 </v>
   <v type="int" >       35 </v>
   <v type="int" >       36 </v>
  </varray>
 </primitive_cell>
 <kpoints>
  <generation param="Monkhorst-Pack">
   <v type="int" name="divisions">       1        1        1 </v>
   <v name="usershift">      0.00000000       0.00000000       0.00000000 </v>
   <v name="genvec1">      1.00000000       0.00000000       0.00000000 </v>
   <v name="genvec2">      0.00000000       1.00000000       0.00000000 </v>
   <v name="genvec3">      0.00000000       0.00000000       1.00000000 </v>
   <v name="shift">      0.00000000       0.00000000       0.00000000 </v>
  </generation>
  <varray name="kpointlist" >
   <v>       0.00000000       0.00000000       0.00000000 </v>
  </varray>
  <varray name="weights" >
   <v>       1.00000000 </v>
  </varray>
 </kpoints>
 <parameters>
  <separator name="general" >
   <i type="string" name="SYSTEM">unknown system</i>
   <i type="logical" name="LCOMPAT"> F  </i>
  </separator>
  <separator name="electronic" >
   <i type="string" name="PREC">normal</i>
   <i name="ENMAX">    400.00000000</i>
   <i name="ENAUG">    605.39200000</i>
   <i name="EDIFF">      0.00010000</i>
   <i type="int" name="IALGO">    38</i>
   <i type="int" name="IWAVPR">    11</i>
   <i type="int" name="NBANDS">   180</i>
   <i type="int" name="NBANDSLOW">    -1</i>
   <i type="int" name="NBANDSHIGH">    -1</i>
   <i name="NELECT">    289.00000000</i>
   <i type="int" name="TURBO">     0</i>
   <i type="int" name="IRESTART">     0</i>
   <i type="int" name="NREBOOT">     0</i>
   <i type="int" name="NMIN">     0</i>
   <i name="EREF">      0.00000000</i>
   <separator name="electronic smearing" >
    <i type="int" name="ISMEAR">     0</i>
    <i name="SIGMA">      0.20000000</i>
    <i name="KSPACING">      0.50000000</i>
    <i type="logical" name="KGAMMA"> T  </i>
    <i type="logical" name="KBLOWUP"> T  </i>
   </separator>
   <separator name="electronic projectors" >
    <i type="logical" name="LREAL"> T  </i>
    <v name="ROPT">      0.00000000      0.00000000      0.00000000      0.00000000</v>
    <i type="int" name="LMAXPAW">  -100</i>
    <i type="int" name="LMAXMIX">     6</i>
    <i type="logical" name="NLSPLINE"> F  </i>
   </separator>
   <separator name="electronic startup" >
    <i type="int" name="ISTART">     0</i>
    <i type="int" name="ICHARG">     2</i>
    <i type="int" name="INIWAV">     1</i>
   </separator>
   <separator name="electronic spin" >
    <i type="int" name="ISPIN">     2</i>
    <i type="logical" name="LNONCOLLINEAR"> F  </i>
    <v name="MAGMOM">      1.00000000      1.00000000      1.00000000      1.00000000      1.00000000      1.00000000      1.00000000      1.00000000      0.00000000      0.00000000      0.00000000      0.00000000      0.00000000      0.00000000      0.00000000      0.00000000      0.00000000      0.00000000      0.00000000      0.00000000
      0.00000000      0.00000000      0.00000000      0.00000000      0.00000000      0.00000000      0.00000000      0.00000000      0.00000000      0.00000000      0.00000000      0.00000000      0.00000000      0.00000000      0.50000000      0.50000000</v>
    <i name="NUPDOWN">     -1.00000000</i>
    <i type="logical" name="LSORBIT"> F  </i>
    <v name="SAXIS">      0.00000000      0.00000000      1.00000000</v>
    <i type="logical" name="LSPIRAL"> F  </i>
    <v name="QSPIRAL">      0.00000000      0.00000000      0.00000000</v>
    <i type="logical" name="LZEROZ"> F  </i>
   </separator>
   <separator name="electronic exchange-correlation" >
    <i type="logical" name="LASPH"> T  </i>
   </separator>
   <separator name="electronic convergence" >
    <i type="int" name="NELM">    30</i>
    <i type="int" name="NELMDL">     0</i>
    <i type="int" name="NELMIN">     5</i>
    <i name="ENINI">    400.00000000</i>
    <separator name="electronic convergence detail" >
     <i type="logical" name="LDIAG"> T  </i>
     <i type="logical" name="LSUBROT"> F  </i>
     <i name="WEIMIN">      0.00100000</i>
     <i name="EBREAK">      0.00000014</i>
     <i name="DEPER">      0.30000000</i>
     <i type="int" name="NRMM">     4</i>
     <i name="TIME">      0.40000000</i>
    </separator>
   </separator>
   <separator name="electronic mixer" >
    <i name="AMIX">      0.40000000</i>
    <i name="BMIX">      1.00000000</i>
    <i name="AMIN">      0.10000000</i>
    <i name="AMIX_MAG">      1.60000000</i>
    <i name="BMIX_MAG">      1.00000000</i>
    <separator name="electronic mixer details" >
     <i type="int" name="IMIX">     4</i>
     <i type="logical" name="MIXFIRST"> F  </i>
     <i type="int" name="MAXMIX">   -45</i>
     <i name="WC">    100.00000000</i>
     <i type="int" name="INIMIX">     1</i>
     <i type="int" name="MIXPRE">     1</i>
     <i type="int" name="MREMOVE">     5</i>
    </separator>
   </separator>
   <separator name="electronic dipolcorrection" >
    <i type="logical" name="LDIPOL"> T  </i>
    <i type="logical" name="LMONO"> F  </i>
    <i type="int" name="IDIPOL">     3</i>
    <i name="EPSILON">      1.00000000</i>
    <v name="DIPOL">   -100.00000000   -100.00000000   -100.00000000</v>
    <i name="EFIELD">      0.00000000</i>
    <i type="logical" name="LVACPOTAV"> F  </i>
   </separator>
  </separator>
  <separator name="grids" >
   <i type="int" name="NGX">    28</i>
   <i type="int" name="NGY">    28</i>
   <i type="int" name="NGZ">   144</i>
   <i type="int" name="NGXF">    56</i>
   <i type="int" name="NGYF">    56</i>
   <i type="int" name="NGZF">   288</i>
   <i type="logical" name="ADDGRID"> F  </i>
  </separator>
  <separator name="ionic" >
   <i type="int" name="NSW">     5</i>
   <i type="int" name="IBRION">     2</i>
   <i type="int" name="MDALGO">     0</i>
   <i type="int" name="ISIF">     2</i>
   <i name="PSTRESS">      0.00000000</i>
   <i name="EDIFFG">     -0.10000000</i>
   <i type="int" name="NFREE">     1</i>
   <i name="POTIM">      0.15000000</i>
   <i name="SMASS">     -3.00000000</i>
   <i name="SCALEE">      1.00000000</i>
  </separator>
  <separator name="ionic md" >
   <i name="TEBEG">      0.00010000</i>
   <i name="TEEND">      0.00010000</i>
   <i type="int" name="NBLOCK">     1</i>
   <i type="int" name="KBLOCK">     5</i>
   <i type="int" name="NPACO">   256</i>
   <i name="APACO">     10.00000000</i>
  </separator>
  <separator name="symmetry" >
   <i type="int" name="ISYM">     2</i>
   <i name="SYMPREC">      0.00001000</i>
  </separator>
  <separator name="dos" >
   <i type="int" name="LORBIT">    10</i>
   <v name="RWIGS">     -1.00000000     -1.00000000     -1.00000000     -1.00000000</v>
   <i type="int" name="NEDOS">   301</i>
   <i name="EMIN">     10.00000000</i>
   <i name="EMAX">    -10.00000000</i>
   <i name="EFERMI">      0.00000000</i>
  </separator>
  <separator name="writing" >
   <i type="int" name="NWRITE">     2</i>
   <i type="logical" name="LWAVE"> F  </i>
   <i type="logical" name="LDOWNSAMPLE"> F  </i>
   <i type="logical" name="LCHARG"> F  </i>
   <i type="logical" name="LPARD"> F  </i>
   <i type="logical" name="LVTOT"> F  </i>
   <i type="logical" name="LVHAR"> F  </i>
   <i type="logical" name="LELF"> F  </i>
   <i type="logical" name="LOPTICS"> F  </i>
   <v name="STM">      0.00000000      0.00000000      0.00000000      0.00000000      0.00000000      0.00000000      0.00000000</v>
  </separator>
  <separator name="performance" >
   <i type="int" name="NPAR">    10</i>
   <i type="int" name="NSIM">    10</i>
   <i type="int" name="NBLK">    -1</i>
   <i type="logical" name="LPLANE"> T  </i>
   <i type="logical" name="LSCALAPACK"> T  </i>
   <i type="logical" name="LSCAAWARE"> F  </i>
   <i type="logical" name="LSCALU"> F  </i>
   <i type="logical" name="LASYNC"> F  </i>
   <i type="logical" name="LORBITALREAL"> F  </i>
  </separator>
  <separator name="miscellaneous" >
   <i type="int" name="IDIOT">     3</i>
   <i type="int" name="PHON_NSTRUCT">    -1</i>
   <i type="logical" name="LMUSIC"> F  </i>
   <v name="POMASS">     51.99600000    138.90000000     16.00000000      1.00000000</v>
   <v name="DARWINR">      0.00000000      0.00000000      0.00000000      0.00000000</v>
   <v name="DARWINV">      1.00000000      1.00000000      1.00000000      1.00000000</v>
   <i type="logical" name="LCORR"> T  </i>
  </separator>
  <i type="logical" name="GGA_COMPAT"> T  </i>
  <i type="logical" name="LBERRY"> F  </i>
  <i type="int" name="ICORELEVEL">     0</i>
  <i type="logical" name="LDAU"> F  </i>
  <i type="int" name="I_CONSTRAINED_M">     0</i>
  <separator name="electronic exchange-correlation" >
   <i type="string" name="GGA    ">PE</i>
   <i type="string" name="XC_C">1</i>
   <i type="int" name="VOSKOWN">     0</i>
   <i type="logical" name="LHFCALC"> F  </i>
   <i type="string" name="PRECFOCK"></i>
   <i type="logical" name="LSYMGRAD"> F  </i>
   <i type="logical" name="LHFONE"> F  </i>
   <i type="logical" name="LRHFCALC"> F  </i>
   <i type="logical" name="LTHOMAS"> F  </i>
   <i type="logical" name="LMODELHF"> F  </i>
   <i type="logical" name="LFOCKACE"> F  </i>
   <i name="ENCUT4O">     -1.00000000</i>
   <i type="int" name="EXXOEP">     0</i>
   <i type="int" name="FOURORBIT">     0</i>
   <i name="AEXX">      0.00000000</i>
   <i name="HFALPHA">      0.00000000</i>
   <i name="MCALPHA">      0.00000000</i>
   <i name="ALDAX">      1.00000000</i>
   <i name="AGGAX">      1.00000000</i>
   <i name="AMGGAX">      1.00000000</i>
   <i name="ALDAC">      1.00000000</i>
   <i name="AGGAC">      1.00000000</i>
   <i name="AMGGAC">      1.00000000</i>
   <i type="int" name="NKREDX">     1</i>
   <i type="int" name="NKREDY">     1</i>
   <i type="int" name="NKREDZ">     1</i>
   <i type="logical" name="SHIFTRED"> F  </i>
   <i type="logical" name="ODDONLY"> F  </i>
   <i type="logical" name="EVENONLY"> F  </i>
   <i type="int" name="LMAXFOCK">     0</i>
   <i type="int" name="NMAXFOCKAE">     0</i>
   <i type="logical" name="LFOCKAEDFT"> F  </i>
   <i name="HFSCREEN">      0.00000000</i>
   <i name="HFSCREENC">      0.00000000</i>
   <i type="int" name="NBANDSGWLOW">     0</i>
  </separator>
  <separator name="vdW DFT" >
   <i type="logical" name="LUSE_VDW"> F  </i>
   <i type="int" name="IVDW_NL">    -1</i>
   <i type="logical" name="LSPIN_VDW"> F  </i>
   <i name="ZAB_VDW">     -0.84910000</i>
   <i name="GAMMA_VDW">      1.39626340</i>
   <i name="ALPHA_VDW">      0.00000000</i>
   <i name="PARAM1">      0.12340000</i>
   <i name="PARAM2">      1.00000000</i>
   <i name="BPARAM">      6.30000000</i>
   <i name="CPARAM">      0.00930000</i>
  </separator>
  <separator name="model GW" >
   <i type="int" name="MODEL_GW">     0</i>
   <i name="MODEL_EPS0">     15.42812654</i>
   <i name="MODEL_ALPHA">      1.00000000</i>
  </separator>
  <separator name="linear response parameters" >
   <i type="logical" name="LEPSILON"> F  </i>
   <i type="logical" name="LRPA"> F  </i>
   <i type="logical" name="LNABLA"> F  </i>
   <i type="logical" name="LVEL"> F  </i>
   <i name="CSHIFT">      0.10000000</i>
   <i name="OMEGAMAX">     -1.00000000</i>
   <i name="DEG_THRESHOLD">      0.00200000</i>
   <i name="RTIME">     -0.10000000</i>
   <i name="WPLASMAI">      0.00000000</i>
   <v name="DFIELD">      0.00000000      0.00000000      0.00000000</v>
   <v name="WPLASMA">      0.00000000      0.00000000      0.00000000      0.00000000      0.00000000      0.00000000      0.00000000      0.00000000      0.00000000</v>
  </separator>
  <separator name="orbital magnetization" >
   <i type="logical" name="NUCIND"> F  </i>
   <v name="MAGPOS">      0.00000000      0.00000000      0.00000000</v>
   <i type="logical" name="LNICSALL"> T  </i>
   <i type="logical" name="ORBITALMAG"> F  </i>
   <i type="logical" name="LMAGBLOCH"> F  </i>
   <i type="logical" name="LCHIMAG"> F  </i>
   <i type="logical" name="LGAUGE"> T  </i>
   <i type="int" name="MAGATOM">     0</i>
   <v name="MAGDIPOL">      0.00000000      0.00000000      0.00000000</v>
   <v name="AVECCONST">      0.00000000      0.00000000      0.00000000</v>
  </separator>
  <separator name="response functions" >
   <i type="logical" name="LALL_IN_ONE"> F  </i>
   <i type="int" name="IALL_IN_ONE">    -1</i>
   <i type="int" name="NBANDS_WAVE">    -1</i>
   <i type="logical" name="LFINITE_TEMPERATURE"> F  </i>
   <i type="logical" name="LADDER"> F  </i>
   <i type="logical" name="LRPAFORCE"> F  </i>
   <i type="logical" name="LFXC"> F  </i>
   <i type="logical" name="LHARTREE"> T  </i>
   <i type="int" name="IBSE">     0</i>
   <v type="int" name="KPOINT">    -1     0     0     0</v>
   <i type="logical" name="LTCTC"> F  </i>
   <i type="logical" name="LTCTE"> F  </i>
   <i type="logical" name="LTETE"> F  </i>
   <i type="logical" name="LTRIPLET"> F  </i>
   <i type="logical" name="LFXCEPS"> F  </i>
   <i type="logical" name="LFXHEG"> F  </i>
   <i type="int" name="NATURALO">     2</i>
   <i type="logical" name="LHOLEGF"> F  </i>
   <i type="logical" name="L2ORDER"> F  </i>
   <i type="logical" name="LDMP1"> F  </i>
   <i type="logical" name="LMP2LT"> F  </i>
   <i type="logical" name="LSMP2LT"> F  </i>
   <i type="logical" name="LGWLF"> F  </i>
   <i name="ENCUTGW">     -1.60000002</i>
   <i name="ENCUTGWSOFT">     -1.60000002</i>
   <i name="ENCUTLF">     -1.00000000</i>
   <i type="logical" name="ESF_SPLINES"> F  </i>
   <i name="ESF_CONV">      0.01000000</i>
   <i type="int" name="ESF_NINTER">    15</i>
   <i type="int" name="LMAXMP2">    -1</i>
   <i name="SCISSOR">      0.00000000</i>
   <i type="int" name="NOMEGA">     0</i>
   <i type="int" name="NOMEGAR">     0</i>
   <i type="int" name="NBANDSGW">    -1</i>
   <i type="int" name="NBANDSO">    -1</i>
   <i type="int" name="NBANDSV">    -1</i>
   <i type="int" name="NELMGW">     1</i>
   <i type="int" name="NELMHF">     1</i>
   <i type="int" name="DIM">     3</i>
   <i type="int" name="IESPILON">     4</i>
   <i type="int" name="ANTIRES">     0</i>
   <i name="OMEGAMAX">    -30.00000000</i>
   <i name="OMEGAMIN">    -30.00000000</i>
   <i name="OMEGATL">   -200.00000000</i>
   <i type="int" name="OMEGAGRID">     0</i>
   <i name="CSHIFT">     -0.10000000</i>
   <i type="logical" name="LSELFENERGY"> F  </i>
   <i type="logical" name="LSPECTRAL"> F  </i>
   <i type="logical" name="LSPECTRALGW"> F  </i>
   <i type="logical" name="LSINGLES"> F  </i>
   <i type="logical" name="LFERMIGW"> F  </i>
   <i type="logical" name="ODDONLYGW"> F  </i>
   <i type="logical" name="EVENONLYGW"> F  </i>
   <i type="int" name="NKREDLFX">     1</i>
   <i type="int" name="NKREDLFY">     1</i>
   <i type="int" name="NKREDLFZ">     1</i>
   <i type="int" name="MAXMEM">  2800</i>
   <i type="int" name="TELESCOPE">     0</i>
   <i type="int" name="NTAUPAR">    -1</i>
   <i type="int" name="NOMEGAPAR">    -1</i>
   <i name="DAMP_NEWTON">      0.80000001</i>
   <i name="LAMBDA">      1.00000000</i>
  </separator>
  <separator name="External order field" >
   <i name="OFIELD_KAPPA">      0.00000000</i>
   <v name="OFIELD_K">      0.00000000      0.00000000      0.00000000</v>
   <i name="OFIELD_Q6_NEAR">      0.00000000</i>
   <i name="OFIELD_Q6_FAR">      0.00000000</i>
   <i name="OFIELD_A">      0.00000000</i>
  </separator>
  <separator name="optional k-points parameters" >
   <i type="int" name="KPOINTS_OPT_MODE">     1</i>
   <i type="logical" name="LKPOINTS_OPT"> F  </i>
  </separator>
 </parameters>
 <atominfo>
  <atoms>      36 </atoms>
  <types>       4 </types>
  <array name="atoms" >
   <dimension dim="1">ion</dimension>
   <field type="string">element</field>
   <field type="int">atomtype</field>
   <set>
    <rc><c>Cr</c><c>   1</c></rc>
    <rc><c>Cr</c><c>   1</c></rc>
    <rc><c>Cr</c><c>   1</c></rc>
    <rc><c>Cr</c><c>   1</c></rc>
    <rc><c>Cr</c><c>   1</c></rc>
    <rc><c>Cr</c><c>   1</c></rc>
    <rc><c>Cr</c><c>   1</c></rc>
    <rc><c>Cr</c><c>   1</c></rc>
    <rc><c>La</c><c>   2</c></rc>
    <rc><c>La</c><c>   2</c></rc>
    <rc><c>La</c><c>   2</c></rc>
    <rc><c>La</c><c>   2</c></rc>
    <rc><c>La</c><c>   2</c></rc>
    <rc><c>La</c><c>   2</c></rc>
    <rc><c>O </c><c>   3</c></rc>
    <rc><c>O </c><c>   3</c></rc>
    <rc><c>O </c><c>   3</c></rc>
    <rc><c>O </c><c>   3</c></rc>
    <rc><c>O </c><c>   3</c></rc>
    <rc><c>O </c><c>   3</c></rc>
    <rc><c>O </c><c>   3</c></rc>
    <rc><c>O </c><c>   3</c></rc>
    <rc><c>O </c><c>   3</c></rc>
    <rc><c>O </c><c>   3</c></rc>
    <rc><c>O </c><c>   3</c></rc>
    <rc><c>O </c><c>   3</c></rc>
    <rc><c>O </c><c>   3</c></rc>
    <rc><c>O </c><c>   3</c></rc>
    <rc><c>O </c><c>   3</c></rc>
    <rc><c>O </c><c>   3</c></rc>
    <rc><c>O </c><c>   3</c></rc>
    <rc><c>O </c><c>   3</c></rc>
    <rc><c>O </c><c>   3</c></rc>
    <rc><c>O </c><c>   3</c></rc>
    <rc><c>O </c><c>   3</c></rc>
    <rc><c>H </c><c>   4</c></rc>
   </set>
  </array>
  <array name="atomtypes" >
   <dimension dim="1">type</dimension>
   <field type="int">atomspertype</field>
   <field type="string">element</field>
   <field>mass</field>
   <field>valence</field>
   <field type="string">pseudopotential</field>
   <set>
    <rc><c>   8</c><c>Cr</c><c>     51.99600000</c><c>     12.00000000</c><c>  PAW_PBE Cr_pv 02Aug2007               </c></rc>
    <rc><c>   6</c><c>La</c><c>    138.90000000</c><c>     11.00000000</c><c>  PAW_PBE La 06Sep2000                  </c></rc>
    <rc><c>  21</c><c>O </c><c>     16.00000000</c><c>      6.00000000</c><c>  PAW_PBE O 08Apr2002                   </c></rc>
    <rc><c>   1</c><c>H </c><c>      1.00000000</c><c>      1.00000000</c><c>  PAW_PBE H 15Jun2001                   </c></rc>
   </set>
  </array>
 </atominfo>
 <structure name="initialpos" >
  <crystal>
   <varray name="basis" >
    <v>       5.53670000       0.00000000       0.00000000 </v>
    <v>       0.00000000       5.74730000       0.00000000 </v>
    <v>       0.00000000       0.00000000      29.09039264 </v>
   </varray>
   <i name="volume">    925.68759245 </i>
   <varray name="rec_basis" >
    <v>       0.18061300       0.00000000       0.00000000 </v>
    <v>       0.00000000       0.17399475       0.00000000 </v>
    <v>       0.00000000       0.00000000       0.03437561 </v>
   </varray>
  </crystal>
  <varray name="positions" >
   <v>       0.00000000       0.50000000       0.00343756 </v>
   <v>       0.50000000       0.00000000       0.00343756 </v>
   <v>       0.50000000       0.00000000       0.13566163 </v>
   <v>       0.00000000       0.50000000       0.13566163 </v>
   <v>       0.99986929       0.49938438       0.26937126 </v>
   <v>       0.50013071       0.99938438       0.26937126 </v>
   <v>       0.48939587       0.00315503       0.40006453 </v>
   <v>       0.01060413       0.50315503       0.40006453 </v>
   <v>       0.50780000       0.54900000       0.06954959 </v>
   <v>       0.99220000       0.04900000       0.06954959 </v>
   <v>       0.49220000       0.45100000       0.20177366 </v>
   <v>       0.00780000       0.95100000       0.20177366 </v>
   <v>       0.50957389       0.54416646       0.33581737 </v>
   <v>       0.99042611       0.04416646       0.33581737 </v>
   <v>       0.77440000       0.80660000       0.01359237 </v>
   <v>       0.72560000       0.30660000       0.01359237 </v>
   <v>       0.42550000       0.98740000       0.06954959 </v>
   <v>       0.07450000       0.48740000       0.06954959 </v>
   <v>       0.72560000       0.30660000       0.12550682 </v>
   <v>       0.77440000       0.80660000       0.12550682 </v>
   <v>       0.22560000       0.19340000       0.14581644 </v>
   <v>       0.27440000       0.69340000       0.14581644 </v>
   <v>       0.57450000       0.01260000       0.20177366 </v>
   <v>       0.92550000       0.51260000       0.20177366 </v>
   <v>       0.28870533       0.69634117       0.25614362 </v>
   <v>       0.21129467       0.19634117       0.25614362 </v>
   <v>       0.79204805       0.80781865       0.27752619 </v>
   <v>       0.70795195       0.30781865       0.27752619 </v>
   <v>       0.42984338       0.00357119       0.33324504 </v>
   <v>       0.07015662       0.50357119       0.33324504 </v>
   <v>       0.71908670       0.30128723       0.38774270 </v>
   <v>       0.78091330       0.80128723       0.38774270 </v>
   <v>       0.21339458       0.19228727       0.40834875 </v>
   <v>       0.28660542       0.69228727       0.40834875 </v>
   <v>       0.00000000       0.49352618       0.47022484 </v>
   <v>       0.00000000       0.55179035       0.50185126 </v>
  </varray>
  <varray name="selective"  type="logical" >
   <v type="logical" >  F  F  F </v>
   <v type="logical" >  F  F  F </v>
   <v type="logical" >  F  F  F </v>
   <v type="logical" >  F  F  F </v>
   <v type="logical" >  T  T  T </v>
   <v type="logical" >  T  T  T </v>
   <v type="logical" >  T  T  T </v>
   <v type="logical" >  T  T  T </v>
   <v type="logical" >  F  F  F </v>
   <v type="logical" >  F  F  F </v>
   <v type="logical" >  F  F  F </v>
   <v type="logical" >  F  F  F </v>
   <v type="logical" >  T  T  T </v>
   <v type="logical" >  T  T  T </v>
   <v type="logical" >  F  F  F </v>
   <v type="logical" >  F  F  F </v>
   <v type="logical" >  F  F  F </v>
   <v type="logical" >  F  F  F </v>
   <v type="logical" >  F  F  F </v>
   <v type="logical" >  F  F  F </v>
   <v type="logical" >  F  F  F </v>
   <v type="logical" >  F  F  F </v>
   <v type="logical" >  F  F  F </v>
   <v type="logical" >  F  F  F </v>
   <v type="logical" >  T  T  T </v>
   <v type="logical" >  T  T  T </v>
   <v type="logical" >  T  T  T </v>
   <v type="logical" >  T  T  T </v>
   <v type="logical" >  T  T  T </v>
   <v type="logical" >  T  T  T </v>
   <v type="logical" >  T  T  T </v>
   <v type="logical" >  T  T  T </v>
   <v type="logical" >  T  T  T </v>
   <v type="logical" >  T  T  T </v>
   <v type="logical" >  T  T  T </v>
   <v type="logical" >  T  T  T </v>
  </varray>
  <nose>
   <v>      -3.00000000       0.00000000       0.00010000       0.00010000 </v>
  </nose>
 </structure>
 <calculation>
  <scstep>
   <time name="dav">    0.39    0.39</time>
   <time name="total">    1.27    1.27</time>
   <dipole>
    <v name="dipole">      0.00000000       0.00000000       0.00011122 </v>
    <i name="Tr[quadrupol]">  -1842.25699252 </i>
    <i name="Echarged">      0.00000000 </i>
    <i name="Edipol_quadrupol">      0.00000000 </i>
    <i name="Eion">      0.00000000 </i>
   </dipole>
   <energy>
    <i name="alphaZ">    597.55832632 </i>
    <i name="ewald"> 141124.58868870 </i>
    <i name="hartreedc">-165783.18563903 </i>
    <i name="XCdc">   1208.16124107 </i>
    <i name="pawpsdc">  21601.85621698 </i>
    <i name="pawaedc"> -22022.81956305 </i>
    <i name="eentropy">     -0.27008726 </i>
    <i name="bandstr">    278.42732224 </i>
    <i name="atom">  27468.95917810 </i>
    <i name="e_fr_energy">   4473.27568406 </i>
    <i name="e_wo_entrp">   4473.54577132 </i>
    <i name="e_0_energy">   4473.41072769 </i>
   </energy>
  </scstep>
  <scstep>
   <time name="dav">    0.37    0.38</time>
   <time name="total">    0.37    0.38</time>
   <dipole>
    <v name="dipole">      0.00000000       0.00000000       0.00011122 </v>
    <i name="Tr[quadrupol]">  -1842.25699252 </i>
    <i name="Echarged">      0.00000000 </i>
    <i name="Edipol_quadrupol">      0.00000000 </i>
    <i name="Eion">      0.00000000 </i>
   </dipole>
   <energy>
    <i name="e_fr_energy">    954.96218353 </i>
    <i name="e_wo_entrp">    955.54912690 </i>
    <i name="e_0_energy">    955.25565521 </i>
   </energy>
  </scstep>
  <scstep>
   <time name="dav">    0.47    0.48</time>
   <time name="total">    0.47    0.48</time>
   <dipole>
    <v name="dipole">      0.00000000       0.00000000       0.00011122 </v>
    <i name="Tr[quadrupol]">  -1842.25699252 </i>
    <i name="Echarged">      0.00000000 </i>
    <i name="Edipol_quadrupol">      0.00000000 </i>
    <i name="Eion">      0.00000000 </i>
   </dipole>
   <energy>
    <i name="e_fr_energy">   -174.57905730 </i>
    <i name="e_wo_entrp">   -173.52522082 </i>
    <i name="e_0_energy">   -174.05213906 </i>
   </energy>
  </scstep>
  <scstep>
   <time name="dav">    0.51    0.52</time>
   <time name="total">    0.51    0.52</time>
   <dipole>
    <v name="dipole">      0.00000000       0.00000000       0.00011122 </v>
    <i name="Tr[quadrupol]">  -1842.25699252 </i>
    <i name="Echarged">      0.00000000 </i>
    <i name="Edipol_quadrupol">      0.00000000 </i>
    <i name="Eion">      0.00000000 </i>
   </dipole>
   <energy>
    <i name="e_fr_energy">   -357.47170300 </i>
    <i name="e_wo_entrp">   -355.92726930 </i>
    <i name="e_0_energy">   -356.69948615 </i>
   </energy>
  </scstep>
  <scstep>
   <time name="dav">    0.59    0.60</time>
   <time name="total">    0.61    0.62</time>
   <dipole>
    <v name="dipole">      0.00000000       0.00000000       0.00011122 </v>
    <i name="Tr[quadrupol]">  -1842.25699252 </i>
    <i name="Echarged">      0.00000000 </i>
    <i name="Edipol_quadrupol">      0.00000000 </i>
    <i name="Eion">      0.00000000 </i>
   </dipole>
   <energy>
    <i name="e_fr_energy">   -369.54766517 </i>
    <i name="e_wo_entrp">   -368.16820144 </i>
    <i name="e_0_energy">   -368.85793331 </i>
   </energy>
  </scstep>
  <scstep>
   <time name="dav">    0.55    0.55</time>
   <time name="total">    1.51    1.52</time>
   <dipole>
    <v name="dipole">      0.00000000       0.00000000       1.32330605 </v>
    <i name="Tr[quadrupol]">  -1870.17216463 </i>
    <i name="Echarged">      0.00000000 </i>
    <i name="Edipol_quadrupol">      0.00000000 </i>
    <i name="Eion">      0.00000000 </i>
   </dipole>
   <energy>
    <i name="e_fr_energy">   -589.05673027 </i>
    <i name="e_wo_entrp">   -588.69476512 </i>
    <i name="e_0_energy">   -588.87574769 </i>
   </energy>
  </scstep>
  <scstep>
   <time name="dav">    0.58    0.58</time>
   <time name="total">    1.53    1.54</time>
   <dipole>
    <v name="dipole">      0.00000000       0.00000000       0.03221317 </v>
    <i name="Tr[quadrupol]">  -1858.99352364 </i>
    <i name="Echarged">      0.00000000 </i>
    <i name="Edipol_quadrupol">      0.00000000 </i>
    <i name="Eion">      0.00000000 </i>
   </dipole>
   <energy>
    <i name="e_fr_energy">   -417.73056430 </i>
    <i name="e_wo_entrp">   -417.27133336 </i>
    <i name="e_0_energy">   -417.50094883 </i>
   </energy>
  </scstep>
  <scstep>
   <time name="dav">    0.60    0.60</time>
   <time name="total">    1.56    1.57</time>
   <dipole>
    <v name="dipole">      0.00000000       0.00000000       4.86959731 </v>
    <i name="Tr[quadrupol]">  -1847.38500750 </i>
    <i name="Echarged">      0.00000000 </i>
    <i name="Edipol_quadrupol">      0.00000000 </i>
    <i name="Eion">      0.00000000 </i>
   </dipole>
   <energy>
    <i name="e_fr_energy">  -1120.06704957 </i>
    <i name="e_wo_entrp">  -1119.86700910 </i>
    <i name="e_0_energy">  -1119.96702934 </i>
   </energy>
  </scstep>
  <scstep>
   <time name="dav">    0.56    0.56</time>
   <time name="total">    1.52    1.53</time>
   <dipole>
    <v name="dipole">      0.00000000       0.00000000       5.34126817 </v>
    <i name="Tr[quadrupol]">  -1846.03844892 </i>
    <i name="Echarged">      0.00000000 </i>
    <i name="Edipol_quadrupol">      0.00000000 </i>
    <i name="Eion">      0.00000000 </i>
   </dipole>
   <energy>
    <i name="e_fr_energy">  -1383.05068029 </i>
    <i name="e_wo_entrp">  -1382.44230851 </i>
    <i name="e_0_energy">  -1382.74649440 </i>
   </energy>
  </scstep>
  <scstep>
   <time name="dav">    0.49    0.49</time>
   <time name="total">    1.44    1.46</time>
   <dipole>
    <v name="dipole">      0.00000000       0.00000000       3.30121815 </v>
    <i name="Tr[quadrupol]">  -1847.38823061 </i>
    <i name="Echarged">      0.00000000 </i>
    <i name="Edipol_quadrupol">      0.00000000 </i>
    <i name="Eion">      0.00000000 </i>
   </dipole>
   <energy>
    <i name="e_fr_energy">   -782.02143418 </i>
    <i name="e_wo_entrp">   -781.52303622 </i>
    <i name="e_0_energy">   -781.77223520 </i>
   </energy>
  </scstep>
  <scstep>
   <time name="dav">    0.51    0.51</time>
   <time name="total">    1.46    1.47</time>
   <dipole>
    <v name="dipole">      0.00000000       0.00000000      -1.55336699 </v>
    <i name="Tr[quadrupol]">  -1842.29249403 </i>
    <i name="Echarged">      0.00000000 </i>
    <i name="Edipol_quadrupol">      0.00000000 </i>
    <i name="Eion">      0.00000000 </i>
   </dipole>
   <energy>
    <i name="e_fr_energy">   -187.78010005 </i>
    <i name="e_wo_entrp">   -187.60426642 </i>
    <i name="e_0_energy">   -187.69218324 </i>
   </energy>
  </scstep>
  <scstep>
   <time name="dav">    0.58    0.59</time>
   <time name="total">    1.55    1.55</time>
   <dipole>
    <v name="dipole">      0.00000000       0.00000000      -1.18334779 </v>
    <i name="Tr[quadrupol]">  -1849.00984035 </i>
    <i name="Echarged">      0.00000000 </i>
    <i name="Edipol_quadrupol">      0.00000000 </i>
    <i name="Eion">      0.00000000 </i>
   </dipole>
   <energy>
    <i name="e_fr_energy">   -322.44575169 </i>
    <i name="e_wo_entrp">   -322.12185798 </i>
    <i name="e_0_energy">   -322.28380484 </i>
   </energy>
  </scstep>
  <scstep>
   <time name="dav">    0.54    0.54</time>
   <time name="total">    1.50    1.51</time>
   <dipole>
    <v name="dipole">      0.00000000       0.00000000      -0.83847736 </v>
    <i name="Tr[quadrupol]">  -1846.26041079 </i>
    <i name="Echarged">      0.00000000 </i>
    <i name="Edipol_quadrupol">      0.00000000 </i>
    <i name="Eion">      0.00000000 </i>
   </dipole>
   <energy>
    <i name="e_fr_energy">   -344.85281454 </i>
    <i name="e_wo_entrp">   -344.59285176 </i>
    <i name="e_0_energy">   -344.72283315 </i>
   </energy>
  </scstep>
  <scstep>
   <time name="dav">    0.53    0.53</time>
   <time name="total">    1.48    1.49</time>
   <dipole>
    <v name="dipole">      0.00000000       0.00000000      -0.89457886 </v>
    <i name="Tr[quadrupol]">  -1845.38731310 </i>
    <i name="Echarged">      0.00000000 </i>
    <i name="Edipol_quadrupol">      0.00000000 </i>
    <i name="Eion">      0.00000000 </i>
   </dipole>
   <energy>
    <i name="e_fr_energy">   -318.00445868 </i>
    <i name="e_wo_entrp">   -317.62395913 </i>
    <i name="e_0_energy">   -317.81420891 </i>
   </energy>
  </scstep>
  <scstep>
   <time name="dav">    0.50    0.50</time>
   <time name="total">    1.46    1.47</time>
   <dipole>
    <v name="dipole">      0.00000000       0.00000000      -0.18558034 </v>
    <i name="Tr[quadrupol]">  -1841.81277869 </i>
    <i name="Echarged">      0.00000000 </i>
    <i name="Edipol_quadrupol">      0.00000000 </i>
    <i name="Eion">      0.00000000 </i>
   </dipole>
   <energy>
    <i name="e_fr_energy">   -326.76509555 </i>
    <i name="e_wo_entrp">   -326.20123291 </i>
    <i name="e_0_energy">   -326.48316423 </i>
   </energy>
  </scstep>
  <scstep>
   <time name="dav">    0.51    0.51</time>
   <time name="total">    1.48    1.48</time>
   <dipole>
    <v name="dipole">      0.00000000       0.00000000       0.12176542 </v>
    <i name="Tr[quadrupol]">  -1841.93811125 </i>
    <i name="Echarged">      0.00000000 </i>
    <i name="Edipol_quadrupol">      0.00000000 </i>
    <i name="Eion">      0.00000000 </i>
   </dipole>
   <energy>
    <i name="e_fr_energy">   -306.79714047 </i>
    <i name="e_wo_entrp">   -306.14956294 </i>
    <i name="e_0_energy">   -306.47335170 </i>
   </energy>
  </scstep>
  <scstep>
   <time name="dav">    0.47    0.47</time>
   <time name="total">    1.42    1.44</time>
   <dipole>
    <v name="dipole">      0.00000000       0.00000000      -0.18461155 </v>
    <i name="Tr[quadrupol]">  -1844.01025385 </i>
    <i name="Echarged">      0.00000000 </i>
    <i name="Edipol_quadrupol">      0.00000000 </i>
    <i name="Eion">      0.00000000 </i>
   </dipole>
   <energy>
    <i name="e_fr_energy">   -304.58134041 </i>
    <i name="e_wo_entrp">   -303.98778692 </i>
    <i name="e_0_energy">   -304.28456367 </i>
   </energy>
  </scstep>
  <scstep>
   <time name="dav">    0.48    0.48</time>
   <time name="total">    1.43    1.44</time>
   <dipole>
    <v name="dipole">      0.00000000       0.00000000      -0.29539834 </v>
    <i name="Tr[quadrupol]">  -1845.41114277 </i>
    <i name="Echarged">      0.00000000 </i>
    <i name="Edipol_quadrupol">      0.00000000 </i>
    <i name="Eion">      0.00000000 </i>
   </dipole>
   <energy>
    <i name="e_fr_energy">   -298.52496804 </i>
    <i name="e_wo_entrp">   -297.95679153 </i>
    <i name="e_0_energy">   -298.24087978 </i>
   </energy>
  </scstep>
  <scstep>
   <time name="dav">    0.47    0.47</time>
   <time name="total">    1.43    1.44</time>
   <dipole>
    <v name="dipole">      0.00000000       0.00000000      -0.17283446 </v>
    <i name="Tr[quadrupol]">  -1844.82331279 </i>
    <i name="Echarged">      0.00000000 </i>
    <i name="Edipol_quadrupol">      0.00000000 </i>
    <i name="Eion">      0.00000000 </i>
   </dipole>
   <energy>
    <i name="e_fr_energy">   -292.00630312 </i>
    <i name="e_wo_entrp">   -291.47445888 </i>
    <i name="e_0_energy">   -291.74038100 </i>
   </energy>
  </scstep>
  <scstep>
   <time name="dav">    0.53    0.53</time>
   <time name="total">    1.49    1.50</time>
   <dipole>
    <v name="dipole">      0.00000000       0.00000000      -0.10146699 </v>
    <i name="Tr[quadrupol]">  -1845.14613844 </i>
    <i name="Echarged">      0.00000000 </i>
    <i name="Edipol_quadrupol">      0.00000000 </i>
    <i name="Eion">      0.00000000 </i>
   </dipole>
   <energy>
    <i name="e_fr_energy">   -291.30723378 </i>
    <i name="e_wo_entrp">   -290.89377238 </i>
    <i name="e_0_energy">   -291.10050308 </i>
   </energy>
  </scstep>
  <scstep>
   <time name="dav">    0.47    0.47</time>
   <time name="total">    1.43    1.44</time>
   <dipole>
    <v name="dipole">      0.00000000       0.00000000      -0.07837590 </v>
    <i name="Tr[quadrupol]">  -1845.44472483 </i>
    <i name="Echarged">      0.00000000 </i>
    <i name="Edipol_quadrupol">      0.00000000 </i>
    <i name="Eion">      0.00000000 </i>
   </dipole>
   <energy>
    <i name="e_fr_energy">   -288.16490027 </i>
    <i name="e_wo_entrp">   -287.50123537 </i>
    <i name="e_0_energy">   -287.83306782 </i>
   </energy>
  </scstep>
  <scstep>
   <time name="dav">    0.57    0.57</time>
   <time name="total">    1.53    1.54</time>
   <dipole>
    <v name="dipole">      0.00000000       0.00000000      -0.18775572 </v>
    <i name="Tr[quadrupol]">  -1845.60663366 </i>
    <i name="Echarged">      0.00000000 </i>
    <i name="Edipol_quadrupol">      0.00000000 </i>
    <i name="Eion">      0.00000000 </i>
   </dipole>
   <energy>
    <i name="e_fr_energy">   -288.49274764 </i>
    <i name="e_wo_entrp">   -287.84980910 </i>
    <i name="e_0_energy">   -288.17127837 </i>
   </energy>
  </scstep>
  <scstep>
   <time name="dav">    0.53    0.53</time>
   <time name="total">    1.49    1.50</time>
   <dipole>
    <v name="dipole">      0.00000000       0.00000000      -0.20742090 </v>
    <i name="Tr[quadrupol]">  -1845.77114157 </i>
    <i name="Echarged">      0.00000000 </i>
    <i name="Edipol_quadrupol">      0.00000000 </i>
    <i name="Eion">      0.00000000 </i>
   </dipole>
   <energy>
    <i name="e_fr_energy">   -288.51620116 </i>
    <i name="e_wo_entrp">   -287.87857467 </i>
    <i name="e_0_energy">   -288.19738792 </i>
   </energy>
  </scstep>
  <scstep>
   <time name="dav">    0.50    0.50</time>
   <time name="total">    1.45    1.46</time>
   <dipole>
    <v name="dipole">      0.00000000       0.00000000      -0.23610761 </v>
    <i name="Tr[quadrupol]">  -1845.88294608 </i>
    <i name="Echarged">      0.00000000 </i>
    <i name="Edipol_quadrupol">      0.00000000 </i>
    <i name="Eion">      0.00000000 </i>
   </dipole>
   <energy>
    <i name="e_fr_energy">   -288.62757206 </i>
    <i name="e_wo_entrp">   -287.99462126 </i>
    <i name="e_0_energy">   -288.31109666 </i>
   </energy>
  </scstep>
  <scstep>
   <time name="dav">    0.44    0.44</time>
   <time name="total">    1.40    1.40</time>
   <dipole>
    <v name="dipole">      0.00000000       0.00000000      -0.23146735 </v>
    <i name="Tr[quadrupol]">  -1845.91824706 </i>
    <i name="Echarged">      0.00000000 </i>
    <i name="Edipol_quadrupol">      0.00000000 </i>
    <i name="Eion">      0.00000000 </i>
   </dipole>
   <energy>
    <i name="e_fr_energy">   -288.44959404 </i>
    <i name="e_wo_entrp">   -287.80061380 </i>
    <i name="e_0_energy">   -288.12510392 </i>
   </energy>
  </scstep>
  <scstep>
   <time name="dav">    0.46    0.46</time>
   <time name="total">    1.42    1.43</time>
   <dipole>
    <v name="dipole">      0.00000000       0.00000000      -0.20280418 </v>
    <i name="Tr[quadrupol]">  -1845.80672544 </i>
    <i name="Echarged">      0.00000000 </i>
    <i name="Edipol_quadrupol">      0.00000000 </i>
    <i name="Eion">      0.00000000 </i>
   </dipole>
   <energy>
    <i name="e_fr_energy">   -288.55163774 </i>
    <i name="e_wo_entrp">   -287.93073444 </i>
    <i name="e_0_energy">   -288.24118609 </i>
   </energy>
  </scstep>
  <scstep>
   <time name="dav">    0.48    0.48</time>
   <time name="total">    1.45    1.45</time>
   <dipole>
    <v name="dipole">      0.00000000       0.00000000      -0.20099688 </v>
    <i name="Tr[quadrupol]">  -1845.80548689 </i>
    <i name="Echarged">      0.00000000 </i>
    <i name="Edipol_quadrupol">      0.00000000 </i>
    <i name="Eion">      0.00000000 </i>
   </dipole>
   <energy>
    <i name="e_fr_energy">   -288.50990620 </i>
    <i name="e_wo_entrp">   -287.89131636 </i>
    <i name="e_0_energy">   -288.20061128 </i>
   </energy>
  </scstep>
  <scstep>
   <time name="dav">    0.48    0.48</time>
   <time name="total">    1.44    1.45</time>
   <dipole>
    <v name="dipole">      0.00000000       0.00000000      -0.17113153 </v>
    <i name="Tr[quadrupol]">  -1845.84468678 </i>
    <i name="Echarged">      0.00000000 </i>
    <i name="Edipol_quadrupol">      0.00000000 </i>
    <i name="Eion">      0.00000000 </i>
   </dipole>
   <energy>
    <i name="e_fr_energy">   -288.19161772 </i>
    <i name="e_wo_entrp">   -287.57974770 </i>
    <i name="e_0_energy">   -287.88568271 </i>
   </energy>
  </scstep>
  <scstep>
   <time name="dav">    0.50    0.50</time>
   <time name="total">    1.46    1.47</time>
   <dipole>
    <v name="dipole">      0.00000000       0.00000000      -0.12394120 </v>
    <i name="Tr[quadrupol]">  -1846.63895460 </i>
    <i name="Echarged">      0.00000000 </i>
    <i name="Edipol_quadrupol">      0.00000000 </i>
    <i name="Eion">      0.00000000 </i>
   </dipole>
   <energy>
    <i name="e_fr_energy">   -288.54369568 </i>
    <i name="e_wo_entrp">   -288.10583885 </i>
    <i name="e_0_energy">   -288.32476727 </i>
   </energy>
  </scstep>
  <scstep>
   <time name="dav">    0.56    0.57</time>
   <time name="total">    1.50    1.51</time>
   <dipole>
    <v name="dipole">      0.00000000       0.00000000      -0.09539480 </v>
    <i name="Tr[quadrupol]">  -1847.01591645 </i>
    <i name="Echarged">      0.00000000 </i>
    <i name="Edipol_quadrupol">      0.00000000 </i>
    <i name="Eion">      0.00000000 </i>
   </dipole>
   <energy>
    <i name="alphaZ">    596.73690629 </i>
    <i name="ewald"> 141124.58868870 </i>
    <i name="hartreedc">-166021.42829926 </i>
    <i name="XCdc">   1221.82116999 </i>
    <i name="pawpsdc">  26594.05361532 </i>
    <i name="pawaedc"> -27041.74275372 </i>
    <i name="eentropy">     -0.42534568 </i>
    <i name="bandstr">  -4230.89246423 </i>
    <i name="atom">  27468.95917810 </i>
    <i name="e_fr_energy">   -288.32930449 </i>
    <i name="e_wo_entrp">   -287.90395881 </i>
    <i name="e_0_energy">   -288.11663165 </i>
   </energy>
  </scstep>
  <structure>
   <crystal>
    <varray name="basis" >
     <v>       5.53670000       0.00000000       0.00000000 </v>
     <v>       0.00000000       5.74730000       0.00000000 </v>
     <v>       0.00000000       0.00000000      29.09039264 </v>
    </varray>
    <i name="volume">    925.68759245 </i>
    <varray name="rec_basis" >
     <v>       0.18061300       0.00000000       0.00000000 </v>
     <v>       0.00000000       0.17399475       0.00000000 </v>
     <v>       0.00000000       0.00000000       0.03437561 </v>
    </varray>
   </crystal>
   <varray name="positions" >
    <v>       0.00000000       0.50000000       0.00343756 </v>
    <v>       0.50000000       0.00000000       0.00343756 </v>
    <v>       0.50000000       0.00000000       0.13566163 </v>
    <v>       0.00000000       0.50000000       0.13566163 </v>
    <v>       0.99986929       0.49938438       0.26937126 </v>
    <v>       0.50013071       0.99938438       0.26937126 </v>
    <v>       0.48939587       0.00315503       0.40006453 </v>
    <v>       0.01060413       0.50315503       0.40006453 </v>
    <v>       0.50780000       0.54900000       0.06954959 </v>
    <v>       0.99220000       0.04900000       0.06954959 </v>
    <v>       0.49220000       0.45100000       0.20177366 </v>
    <v>       0.00780000       0.95100000       0.20177366 </v>
    <v>       0.50957389       0.54416646       0.33581737 </v>
    <v>       0.99042611       0.04416646       0.33581737 </v>
    <v>       0.77440000       0.80660000       0.01359237 </v>
    <v>       0.72560000       0.30660000       0.01359237 </v>
    <v>       0.42550000       0.98740000       0.06954959 </v>
    <v>       0.07450000       0.48740000       0.06954959 </v>
    <v>       0.72560000       0.30660000       0.12550682 </v>
    <v>       0.77440000       0.80660000       0.12550682 </v>
    <v>       0.22560000       0.19340000       0.14581644 </v>
    <v>       0.27440000       0.69340000       0.14581644 </v>
    <v>       0.57450000       0.01260000       0.20177366 </v>
    <v>       0.92550000       0.51260000       0.20177366 </v>
    <v>       0.28870533       0.69634117       0.25614362 </v>
    <v>       0.21129467       0.19634117       0.25614362 </v>
    <v>       0.79204805       0.80781865       0.27752619 </v>
    <v>       0.70795195       0.30781865       0.27752619 </v>
    <v>       0.42984338       0.00357119       0.33324504 </v>
    <v>       0.07015662       0.50357119       0.33324504 </v>
    <v>       0.71908670       0.30128723       0.38774270 </v>
    <v>       0.78091330       0.80128723       0.38774270 </v>
    <v>       0.21339458       0.19228727       0.40834875 </v>
    <v>       0.28660542       0.69228727       0.40834875 </v>
    <v>       0.00000000       0.49352618       0.47022484 </v>
    <v>       0.00000000       0.55179035       0.50185126 </v>
   </varray>
  </structure>
  <varray name="forces" >
   <v>      -1.26942478       1.56588758       2.19976987 </v>
   <v>       0.83293019       1.78441679       1.81686864 </v>
   <v>       0.14058964       0.34506957      -0.44707005 </v>
   <v>      -0.01432429       0.32087270      -0.45310763 </v>
   <v>      -0.04092589       0.75642757      -0.74157131 </v>
   <v>       0.19430347       0.63483180      -0.80777374 </v>
   <v>      -2.43101660       1.15367230      -1.82450647 </v>
   <v>       1.19044152       1.17055337       5.35436752 </v>
   <v>       1.08279875      -0.62307439      -1.33241555 </v>
   <v>      -1.12033225      -0.23698312      -1.24023536 </v>
   <v>      -0.63930784       1.25081786      -0.17747453 </v>
   <v>       0.70357616       0.96272123      -0.15401252 </v>
   <v>       1.20372515      -0.12312953      -0.79706457 </v>
   <v>      -1.23359398      -0.08533292      -0.94524519 </v>
   <v>       4.14748688       0.23534485       0.90427562 </v>
   <v>      -3.12019397      -0.37879203       0.63550716 </v>
   <v>       0.09859481       2.02200348      -2.56234209 </v>
   <v>      -1.05150716       1.31119331      -2.67032087 </v>
   <v>      -3.75148034      -0.44242524      -5.19385397 </v>
   <v>       4.16201573       0.49975865      -5.37127367 </v>
   <v>      -5.44726387      -0.30009579       0.50367346 </v>
   <v>       5.50838906       0.12047574       0.87837819 </v>
   <v>      -0.74905161      -2.44431108      -3.41647487 </v>
   <v>       0.61474286      -2.47823373      -3.36834649 </v>
   <v>      -2.31972887       0.99290708       3.23013055 </v>
   <v>       2.39813567       0.98837279       3.25222278 </v>
   <v>      -0.51335264       1.52387693       0.67316412 </v>
   <v>       0.47544400       1.48616391       0.70140924 </v>
   <v>       0.18708452      -4.45784931       1.54094143 </v>
   <v>      -0.19847028      -4.52156038       1.32609804 </v>
   <v>      -1.35322501      -1.30055810       1.29659419 </v>
   <v>       1.00553888      -0.82235755       1.47686853 </v>
   <v>       0.34913530      -3.88979496       3.17048092 </v>
   <v>       1.54211504      -2.27749487       2.84405988 </v>
   <v>      -0.73035874       3.13108641      -1.11422488 </v>
   <v>       0.14651046       2.12553907       0.81250361 </v>
  </varray>
  <varray name="stress" >
   <v>      94.02225065      -1.82523850      -1.38176053 </v>
   <v>      -1.82519275      85.46952456      20.50761368 </v>
   <v>      -1.38074101      20.50757443    -152.74311364 </v>
  </varray>
  <energy>
   <i name="e_fr_energy">   -288.32930449 </i>
   <i name="e_wo_entrp">   -287.90395881 </i>
   <i name="e_0_energy">   -288.11663165 </i>
  </energy>
  <time name="totalsc">   42.27   42.57</time>
 </calculation>
 <calculation>
  <scstep>
   <time name="dav">    0.38    0.38</time>
   <time name="total">    1.33    1.34</time>
   <dipole>
    <v name="dipole">      0.00000000       0.00000000      -0.06377725 </v>
    <i name="Tr[quadrupol]">  -1843.75208636 </i>
    <i name="Echarged">      0.00000000 </i>
    <i name="Edipol_quadrupol">      0.00000000 </i>
    <i name="Eion">      0.00000000 </i>
   </dipole>
   <energy>
    <i name="alphaZ">    597.02909110 </i>
    <i name="ewald"> 140679.64101021 </i>
    <i name="hartreedc">-165603.93656008 </i>
    <i name="XCdc">   1222.07728445 </i>
    <i name="pawpsdc">  26442.20929892 </i>
    <i name="pawaedc"> -26889.37522000 </i>
    <i name="eentropy">     -0.33613154 </i>
    <i name="bandstr">  -4203.42032718 </i>
    <i name="atom">  27468.95917810 </i>
    <i name="e_fr_energy">   -287.15237601 </i>
    <i name="e_wo_entrp">   -286.81624447 </i>
    <i name="e_0_energy">   -286.98431024 </i>
   </energy>
  </scstep>
  <scstep>
   <time name="dav">    0.58    0.58</time>
   <time name="total">    1.53    1.54</time>
   <dipole>
    <v name="dipole">      0.00000000       0.00000000      -2.82396595 </v>
    <i name="Tr[quadrupol]">  -1848.08026303 </i>
    <i name="Echarged">      0.00000000 </i>
    <i name="Edipol_quadrupol">      0.00000000 </i>
    <i name="Eion">      0.00000000 </i>
   </dipole>
   <energy>
    <i name="e_fr_energy">   -591.58782116 </i>
    <i name="e_wo_entrp">   -591.06960762 </i>
    <i name="e_0_energy">   -591.32871439 </i>
   </energy>
  </scstep>
  <scstep>
   <time name="dav">    0.52    0.52</time>
   <time name="total">    1.48    1.49</time>
   <dipole>
    <v name="dipole">      0.00000000       0.00000000      -1.83199192 </v>
    <i name="Tr[quadrupol]">  -1850.85584066 </i>
    <i name="Echarged">      0.00000000 </i>
    <i name="Edipol_quadrupol">      0.00000000 </i>
    <i name="Eion">      0.00000000 </i>
   </dipole>
   <energy>
    <i name="e_fr_energy">   -465.27720793 </i>
    <i name="e_wo_entrp">   -465.13337095 </i>
    <i name="e_0_energy">   -465.20528944 </i>
   </energy>
  </scstep>
  <scstep>
   <time name="dav">    0.58    0.58</time>
   <time name="total">    1.54    1.55</time>
   <dipole>
    <v name="dipole">      0.00000000       0.00000000      -1.74984937 </v>
    <i name="Tr[quadrupol]">  -1849.79285855 </i>
    <i name="Echarged">      0.00000000 </i>
    <i name="Edipol_quadrupol">      0.00000000 </i>
    <i name="Eion">      0.00000000 </i>
   </dipole>
   <energy>
    <i name="e_fr_energy">   -467.45522749 </i>
    <i name="e_wo_entrp">   -467.25432998 </i>
    <i name="e_0_energy">   -467.35477874 </i>
   </energy>
  </scstep>
  <scstep>
   <time name="dav">    0.51    0.51</time>
   <time name="total">    1.46    1.47</time>
   <dipole>
    <v name="dipole">      0.00000000       0.00000000      -1.41930276 </v>
    <i name="Tr[quadrupol]">  -1849.35327833 </i>
    <i name="Echarged">      0.00000000 </i>
    <i name="Edipol_quadrupol">      0.00000000 </i>
    <i name="Eion">      0.00000000 </i>
   </dipole>
   <energy>
    <i name="e_fr_energy">   -432.70311773 </i>
    <i name="e_wo_entrp">   -432.48651690 </i>
    <i name="e_0_energy">   -432.59481731 </i>
   </energy>
  </scstep>
  <scstep>
   <time name="dav">    0.53    0.53</time>
   <time name="total">    1.49    1.50</time>
   <dipole>
    <v name="dipole">      0.00000000       0.00000000      -0.48128374 </v>
    <i name="Tr[quadrupol]">  -1849.61510734 </i>
    <i name="Echarged">      0.00000000 </i>
    <i name="Edipol_quadrupol">      0.00000000 </i>
    <i name="Eion">      0.00000000 </i>
   </dipole>
   <energy>
    <i name="e_fr_energy">   -352.31767580 </i>
    <i name="e_wo_entrp">   -352.21099033 </i>
    <i name="e_0_energy">   -352.26433306 </i>
   </energy>
  </scstep>
  <scstep>
   <time name="dav">    0.58    0.58</time>
   <time name="total">    1.53    1.54</time>
   <dipole>
    <v name="dipole">      0.00000000       0.00000000      -0.45921856 </v>
    <i name="Tr[quadrupol]">  -1849.63966662 </i>
    <i name="Echarged">      0.00000000 </i>
    <i name="Edipol_quadrupol">      0.00000000 </i>
    <i name="Eion">      0.00000000 </i>
   </dipole>
   <energy>
    <i name="e_fr_energy">   -351.65138990 </i>
    <i name="e_wo_entrp">   -351.52924368 </i>
    <i name="e_0_energy">   -351.59031679 </i>
   </energy>
  </scstep>
  <scstep>
   <time name="dav">    0.59    0.59</time>
   <time name="total">    1.54    1.56</time>
   <dipole>
    <v name="dipole">      0.00000000       0.00000000      -0.43160766 </v>
    <i name="Tr[quadrupol]">  -1850.00184346 </i>
    <i name="Echarged">      0.00000000 </i>
    <i name="Edipol_quadrupol">      0.00000000 </i>
    <i name="Eion">      0.00000000 </i>
   </dipole>
   <energy>
    <i name="e_fr_energy">   -350.61153784 </i>
    <i name="e_wo_entrp">   -350.46187815 </i>
    <i name="e_0_energy">   -350.53670799 </i>
   </energy>
  </scstep>
  <scstep>
   <time name="dav">    0.49    0.49</time>
   <time name="total">    1.44    1.45</time>
   <dipole>
    <v name="dipole">      0.00000000       0.00000000      -0.45067114 </v>
    <i name="Tr[quadrupol]">  -1850.29308195 </i>
    <i name="Echarged">      0.00000000 </i>
    <i name="Edipol_quadrupol">      0.00000000 </i>
    <i name="Eion">      0.00000000 </i>
   </dipole>
   <energy>
    <i name="e_fr_energy">   -351.29246050 </i>
    <i name="e_wo_entrp">   -351.13248061 </i>
    <i name="e_0_energy">   -351.21247056 </i>
   </energy>
  </scstep>
  <scstep>
   <time name="dav">    0.53    0.53</time>
   <time name="total">    1.48    1.50</time>
   <dipole>
    <v name="dipole">      0.00000000       0.00000000      -0.44304026 </v>
    <i name="Tr[quadrupol]">  -1850.05675520 </i>
    <i name="Echarged">      0.00000000 </i>
    <i name="Edipol_quadrupol">      0.00000000 </i>
    <i name="Eion">      0.00000000 </i>
   </dipole>
   <energy>
    <i name="e_fr_energy">   -350.18354362 </i>
    <i name="e_wo_entrp">   -350.00089270 </i>
    <i name="e_0_energy">   -350.09221816 </i>
   </energy>
  </scstep>
  <scstep>
   <time name="dav">    0.52    0.52</time>
   <time name="total">    1.47    1.49</time>
   <dipole>
    <v name="dipole">      0.00000000       0.00000000      -0.44597774 </v>
    <i name="Tr[quadrupol]">  -1850.07922588 </i>
    <i name="Echarged">      0.00000000 </i>
    <i name="Edipol_quadrupol">      0.00000000 </i>
    <i name="Eion">      0.00000000 </i>
   </dipole>
   <energy>
    <i name="e_fr_energy">   -350.47514326 </i>
    <i name="e_wo_entrp">   -350.29477022 </i>
    <i name="e_0_energy">   -350.38495674 </i>
   </energy>
  </scstep>
  <scstep>
   <time name="dav">    0.45    0.45</time>
   <time name="total">    1.41    1.42</time>
   <dipole>
    <v name="dipole">      0.00000000       0.00000000      -0.41484611 </v>
    <i name="Tr[quadrupol]">  -1850.23636405 </i>
    <i name="Echarged">      0.00000000 </i>
    <i name="Edipol_quadrupol">      0.00000000 </i>
    <i name="Eion">      0.00000000 </i>
   </dipole>
   <energy>
    <i name="e_fr_energy">   -348.94204759 </i>
    <i name="e_wo_entrp">   -348.72068014 </i>
    <i name="e_0_energy">   -348.83136387 </i>
   </energy>
  </scstep>
  <scstep>
   <time name="dav">    0.48    0.48</time>
   <time name="total">    1.45    1.45</time>
   <dipole>
    <v name="dipole">      0.00000000       0.00000000      -0.42411282 </v>
    <i name="Tr[quadrupol]">  -1849.95472787 </i>
    <i name="Echarged">      0.00000000 </i>
    <i name="Edipol_quadrupol">      0.00000000 </i>
    <i name="Eion">      0.00000000 </i>
   </dipole>
   <energy>
    <i name="e_fr_energy">   -348.93358784 </i>
    <i name="e_wo_entrp">   -348.73512810 </i>
    <i name="e_0_energy">   -348.83435797 </i>
   </energy>
  </scstep>
  <scstep>
   <time name="dav">    0.56    0.56</time>
   <time name="total">    1.52    1.53</time>
   <dipole>
    <v name="dipole">      0.00000000       0.00000000      -0.41341916 </v>
    <i name="Tr[quadrupol]">  -1849.93030188 </i>
    <i name="Echarged">      0.00000000 </i>
    <i name="Edipol_quadrupol">      0.00000000 </i>
    <i name="Eion">      0.00000000 </i>
   </dipole>
   <energy>
    <i name="e_fr_energy">   -347.94743351 </i>
    <i name="e_wo_entrp">   -347.73798817 </i>
    <i name="e_0_energy">   -347.84271084 </i>
   </energy>
  </scstep>
  <scstep>
   <time name="dav">    0.55    0.55</time>
   <time name="total">    1.50    1.51</time>
   <dipole>
    <v name="dipole">      0.00000000       0.00000000      -0.39842599 </v>
    <i name="Tr[quadrupol]">  -1850.03420580 </i>
    <i name="Echarged">      0.00000000 </i>
    <i name="Edipol_quadrupol">      0.00000000 </i>
    <i name="Eion">      0.00000000 </i>
   </dipole>
   <energy>
    <i name="e_fr_energy">   -347.41833124 </i>
    <i name="e_wo_entrp">   -347.18893761 </i>
    <i name="e_0_energy">   -347.30363443 </i>
   </energy>
  </scstep>
  <scstep>
   <time name="dav">    0.49    0.50</time>
   <time name="total">    1.45    1.46</time>
   <dipole>
    <v name="dipole">      0.00000000       0.00000000      -0.29487665 </v>
    <i name="Tr[quadrupol]">  -1849.69254938 </i>
    <i name="Echarged">      0.00000000 </i>
    <i name="Edipol_quadrupol">      0.00000000 </i>
    <i name="Eion">      0.00000000 </i>
   </dipole>
   <energy>
    <i name="e_fr_energy">   -339.07116193 </i>
    <i name="e_wo_entrp">   -338.90775896 </i>
    <i name="e_0_energy">   -338.98946045 </i>
   </energy>
  </scstep>
  <scstep>
   <time name="dav">    0.52    0.52</time>
   <time name="total">    1.47    1.48</time>
   <dipole>
    <v name="dipole">      0.00000000       0.00000000      -0.38790874 </v>
    <i name="Tr[quadrupol]">  -1847.26289570 </i>
    <i name="Echarged">      0.00000000 </i>
    <i name="Edipol_quadrupol">      0.00000000 </i>
    <i name="Eion">      0.00000000 </i>
   </dipole>
   <energy>
    <i name="e_fr_energy">   -329.80509776 </i>
    <i name="e_wo_entrp">   -329.61341359 </i>
    <i name="e_0_energy">   -329.70925568 </i>
   </energy>
  </scstep>
  <scstep>
   <time name="dav">    0.45    0.45</time>
   <time name="total">    1.40    1.41</time>
   <dipole>
    <v name="dipole">      0.00000000       0.00000000      -0.19171446 </v>
    <i name="Tr[quadrupol]">  -1845.94231276 </i>
    <i name="Echarged">      0.00000000 </i>
    <i name="Edipol_quadrupol">      0.00000000 </i>
    <i name="Eion">      0.00000000 </i>
   </dipole>
   <energy>
    <i name="e_fr_energy">   -291.34106321 </i>
    <i name="e_wo_entrp">   -290.81491752 </i>
    <i name="e_0_energy">   -291.07799036 </i>
   </energy>
  </scstep>
  <scstep>
   <time name="dav">    0.54    0.54</time>
   <time name="total">    1.50    1.51</time>
   <dipole>
    <v name="dipole">      0.00000000       0.00000000       0.30243172 </v>
    <i name="Tr[quadrupol]">  -1849.74129466 </i>
    <i name="Echarged">      0.00000000 </i>
    <i name="Edipol_quadrupol">      0.00000000 </i>
    <i name="Eion">      0.00000000 </i>
   </dipole>
   <energy>
    <i name="e_fr_energy">   -307.44135894 </i>
    <i name="e_wo_entrp">   -307.17224285 </i>
    <i name="e_0_energy">   -307.30680090 </i>
   </energy>
  </scstep>
  <scstep>
   <time name="dav">    0.45    0.45</time>
   <time name="total">    1.41    1.42</time>
   <dipole>
    <v name="dipole">      0.00000000       0.00000000       0.18695137 </v>
    <i name="Tr[quadrupol]">  -1847.72737115 </i>
    <i name="Echarged">      0.00000000 </i>
    <i name="Edipol_quadrupol">      0.00000000 </i>
    <i name="Eion">      0.00000000 </i>
   </dipole>
   <energy>
    <i name="e_fr_energy">   -294.34221758 </i>
    <i name="e_wo_entrp">   -293.90012161 </i>
    <i name="e_0_energy">   -294.12116959 </i>
   </energy>
  </scstep>
  <scstep>
   <time name="dav">    0.48    0.48</time>
   <time name="total">    1.43    1.45</time>
   <dipole>
    <v name="dipole">      0.00000000       0.00000000       0.20100633 </v>
    <i name="Tr[quadrupol]">  -1848.16056621 </i>
    <i name="Echarged">      0.00000000 </i>
    <i name="Edipol_quadrupol">      0.00000000 </i>
    <i name="Eion">      0.00000000 </i>
   </dipole>
   <energy>
    <i name="e_fr_energy">   -290.51066700 </i>
    <i name="e_wo_entrp">   -290.03889382 </i>
    <i name="e_0_energy">   -290.27478041 </i>
   </energy>
  </scstep>
  <scstep>
   <time name="dav">    0.47    0.47</time>
   <time name="total">    1.43    1.44</time>
   <dipole>
    <v name="dipole">      0.00000000       0.00000000       0.12173612 </v>
    <i name="Tr[quadrupol]">  -1847.69476022 </i>
    <i name="Echarged">      0.00000000 </i>
    <i name="Edipol_quadrupol">      0.00000000 </i>
    <i name="Eion">      0.00000000 </i>
   </dipole>
   <energy>
    <i name="e_fr_energy">   -290.86802153 </i>
    <i name="e_wo_entrp">   -290.56460822 </i>
    <i name="e_0_energy">   -290.71631487 </i>
   </energy>
  </scstep>
  <scstep>
   <time name="dav">    0.45    0.45</time>
   <time name="total">    1.41    1.42</time>
   <dipole>
    <v name="dipole">      0.00000000       0.00000000       0.09087511 </v>
    <i name="Tr[quadrupol]">  -1847.86212721 </i>
    <i name="Echarged">      0.00000000 </i>
    <i name="Edipol_quadrupol">      0.00000000 </i>
    <i name="Eion">      0.00000000 </i>
   </dipole>
   <energy>
    <i name="e_fr_energy">   -287.27508601 </i>
    <i name="e_wo_entrp">   -286.83951463 </i>
    <i name="e_0_energy">   -287.05730032 </i>
   </energy>
  </scstep>
  <scstep>
   <time name="dav">    0.53    0.53</time>
   <time name="total">    1.49    1.50</time>
   <dipole>
    <v name="dipole">      0.00000000       0.00000000       0.10951119 </v>
    <i name="Tr[quadrupol]">  -1848.16801772 </i>
    <i name="Echarged">      0.00000000 </i>
    <i name="Edipol_quadrupol">      0.00000000 </i>
    <i name="Eion">      0.00000000 </i>
   </dipole>
   <energy>
    <i name="e_fr_energy">   -286.94376497 </i>
    <i name="e_wo_entrp">   -286.51569852 </i>
    <i name="e_0_energy">   -286.72973174 </i>
   </energy>
  </scstep>
  <scstep>
   <time name="dav">    0.48    0.49</time>
   <time name="total">    1.44    1.45</time>
   <dipole>
    <v name="dipole">      0.00000000       0.00000000       0.06160728 </v>
    <i name="Tr[quadrupol]">  -1848.34431380 </i>
    <i name="Echarged">      0.00000000 </i>
    <i name="Edipol_quadrupol">      0.00000000 </i>
    <i name="Eion">      0.00000000 </i>
   </dipole>
   <energy>
    <i name="e_fr_energy">   -286.90790535 </i>
    <i name="e_wo_entrp">   -286.47789195 </i>
    <i name="e_0_energy">   -286.69289865 </i>
   </energy>
  </scstep>
  <scstep>
   <time name="dav">    0.56    0.56</time>
   <time name="total">    1.52    1.53</time>
   <dipole>
    <v name="dipole">      0.00000000       0.00000000       0.05249302 </v>
    <i name="Tr[quadrupol]">  -1848.33365900 </i>
    <i name="Echarged">      0.00000000 </i>
    <i name="Edipol_quadrupol">      0.00000000 </i>
    <i name="Eion">      0.00000000 </i>
   </dipole>
   <energy>
    <i name="e_fr_energy">   -286.87077020 </i>
    <i name="e_wo_entrp">   -286.41609236 </i>
    <i name="e_0_energy">   -286.64343128 </i>
   </energy>
  </scstep>
  <scstep>
   <time name="dav">    0.40    0.40</time>
   <time name="total">    1.35    1.37</time>
   <dipole>
    <v name="dipole">      0.00000000       0.00000000       0.03495999 </v>
    <i name="Tr[quadrupol]">  -1848.38594393 </i>
    <i name="Echarged">      0.00000000 </i>
    <i name="Edipol_quadrupol">      0.00000000 </i>
    <i name="Eion">      0.00000000 </i>
   </dipole>
   <energy>
    <i name="e_fr_energy">   -286.73155606 </i>
    <i name="e_wo_entrp">   -286.25265696 </i>
    <i name="e_0_energy">   -286.49210651 </i>
   </energy>
  </scstep>
  <scstep>
   <time name="dav">    0.41    0.41</time>
   <time name="total">    1.37    1.38</time>
   <dipole>
    <v name="dipole">      0.00000000       0.00000000       0.06239129 </v>
    <i name="Tr[quadrupol]">  -1848.31140711 </i>
    <i name="Echarged">      0.00000000 </i>
    <i name="Edipol_quadrupol">      0.00000000 </i>
    <i name="Eion">      0.00000000 </i>
   </dipole>
   <energy>
    <i name="e_fr_energy">   -286.95645058 </i>
    <i name="e_wo_entrp">   -286.52851968 </i>
    <i name="e_0_energy">   -286.74248513 </i>
   </energy>
  </scstep>
  <scstep>
   <time name="dav">    0.40    0.41</time>
   <time name="total">    1.36    1.37</time>
   <dipole>
    <v name="dipole">      0.00000000       0.00000000       0.05353349 </v>
    <i name="Tr[quadrupol]">  -1848.52544603 </i>
    <i name="Echarged">      0.00000000 </i>
    <i name="Edipol_quadrupol">      0.00000000 </i>
    <i name="Eion">      0.00000000 </i>
   </dipole>
   <energy>
    <i name="e_fr_energy">   -286.75900358 </i>
    <i name="e_wo_entrp">   -286.31471374 </i>
    <i name="e_0_energy">   -286.53685866 </i>
   </energy>
  </scstep>
  <scstep>
   <time name="dav">    0.57    0.58</time>
   <time name="total">    1.51    1.52</time>
   <dipole>
    <v name="dipole">      0.00000000       0.00000000       0.05239179 </v>
    <i name="Tr[quadrupol]">  -1848.66726307 </i>
    <i name="Echarged">      0.00000000 </i>
    <i name="Edipol_quadrupol">      0.00000000 </i>
    <i name="Eion">      0.00000000 </i>
   </dipole>
   <energy>
    <i name="alphaZ">    597.68716452 </i>
    <i name="ewald"> 140679.64101021 </i>
    <i name="hartreedc">-165704.29496292 </i>
    <i name="XCdc">   1221.47394121 </i>
    <i name="pawpsdc">  27246.40431531 </i>
    <i name="pawaedc"> -27694.53188368 </i>
    <i name="eentropy">     -0.44638741 </i>
    <i name="bandstr">  -4101.73780203 </i>
    <i name="atom">  27468.95917810 </i>
    <i name="e_fr_energy">   -286.84542669 </i>
    <i name="e_wo_entrp">   -286.39903928 </i>
    <i name="e_0_energy">   -286.62223299 </i>
   </energy>
  </scstep>
  <structure>
   <crystal>
    <varray name="basis" >
     <v>       5.53670000       0.00000000       0.00000000 </v>
     <v>       0.00000000       5.74730000       0.00000000 </v>
     <v>       0.00000000       0.00000000      29.09039264 </v>
    </varray>
    <i name="volume">    925.68759245 </i>
    <varray name="rec_basis" >
     <v>       0.18061300       0.00000000       0.00000000 </v>
     <v>       0.00000000       0.17399475       0.00000000 </v>
     <v>       0.00000000       0.00000000       0.03437561 </v>
    </varray>
   </crystal>
   <varray name="positions" >
    <v>       0.00000000       0.50000000       0.00343756 </v>
    <v>       0.50000000       0.00000000       0.00343756 </v>
    <v>       0.50000000       0.00000000       0.13566163 </v>
    <v>       0.00000000       0.50000000       0.13566163 </v>
    <v>       0.99976231       0.50128921       0.26900232 </v>
    <v>       0.50063862       0.00098301       0.26896938 </v>
    <v>       0.48304125       0.00606020       0.39915681 </v>
    <v>       0.01371592       0.50610271       0.40272838 </v>
    <v>       0.50780000       0.54900000       0.06954959 </v>
    <v>       0.99220000       0.04900000       0.06954959 </v>
    <v>       0.49220000       0.45100000       0.20177366 </v>
    <v>       0.00780000       0.95100000       0.20177366 </v>
    <v>       0.51272040       0.54385640       0.33542082 </v>
    <v>       0.98720153       0.04395157       0.33534710 </v>
    <v>       0.77440000       0.80660000       0.01359237 </v>
    <v>       0.72560000       0.30660000       0.01359237 </v>
    <v>       0.42550000       0.98740000       0.06954959 </v>
    <v>       0.07450000       0.48740000       0.06954959 </v>
    <v>       0.72560000       0.30660000       0.12550682 </v>
    <v>       0.77440000       0.80660000       0.12550682 </v>
    <v>       0.22560000       0.19340000       0.14581644 </v>
    <v>       0.27440000       0.69340000       0.14581644 </v>
    <v>       0.57450000       0.01260000       0.20177366 </v>
    <v>       0.92550000       0.51260000       0.20177366 </v>
    <v>       0.28264162       0.69884150       0.25775064 </v>
    <v>       0.21756334       0.19883008       0.25776164 </v>
    <v>       0.79070616       0.81165606       0.27786110 </v>
    <v>       0.70919475       0.31156110       0.27787515 </v>
    <v>       0.43033241       0.99234548       0.33401168 </v>
    <v>       0.06963782       0.49218504       0.33390479 </v>
    <v>       0.71554941       0.29801218       0.38838777 </v>
    <v>       0.78354175       0.79921638       0.38847746 </v>
    <v>       0.21430721       0.18249202       0.40992610 </v>
    <v>       0.29063647       0.68655210       0.40976370 </v>
    <v>       0.99809086       0.50141085       0.46967050 </v>
    <v>       0.00038297       0.55714286       0.50225549 </v>
   </varray>
  </structure>
  <varray name="forces" >
   <v>      -1.32125568       1.25562272       4.21122702 </v>
   <v>       1.56449986       1.31688593       4.22035451 </v>
   <v>      -0.09275306       0.10930164       0.82054806 </v>
   <v>       0.29517825       0.22813958       0.88872503 </v>
   <v>       0.24469554       0.06952230       1.36495745 </v>
   <v>       0.12372570       0.08056039       1.24474156 </v>
   <v>      -1.98928919       0.66727372      -0.72035445 </v>
   <v>       0.73721806       1.63289684       2.94224268 </v>
   <v>       1.31255925      -0.95923194       0.49545621 </v>
   <v>      -0.91749097      -0.81393384       0.40425947 </v>
   <v>      -0.33732920       1.20610627       0.81647704 </v>
   <v>       0.79232898       1.00328290       0.85406015 </v>
   <v>       0.07515791      -0.30871027       1.81040109 </v>
   <v>      -0.04163108       0.04075425       1.63790270 </v>
   <v>       3.85782862      -0.10114922       2.17331666 </v>
   <v>      -3.49169939      -0.10228261       2.12340972 </v>
   <v>       0.58329899       1.41330762      -1.55374119 </v>
   <v>       0.09774440       1.20602645      -1.93392552 </v>
   <v>      -4.11637823      -0.21795927      -5.02558935 </v>
   <v>       4.14331227       0.05486348      -4.98801604 </v>
   <v>      -5.23142405      -0.56535083       1.30624240 </v>
   <v>       6.00255037      -0.19440524       1.35136629 </v>
   <v>      -0.55411043      -2.60370307      -2.55234228 </v>
   <v>       0.64471013      -2.58661352      -2.41355419 </v>
   <v>       4.17785689       0.21954883      -2.13863642 </v>
   <v>      -3.57882962       0.23633850      -2.08768428 </v>
   <v>      -2.00706080       2.14363411       1.02272323 </v>
   <v>       2.37735829       1.96795184       0.84132390 </v>
   <v>      -1.32441520       5.42219162      -5.05190374 </v>
   <v>       2.19617734       5.72337598      -3.89276990 </v>
   <v>      -0.26493708      -6.80838986       1.13578949 </v>
   <v>      -0.15921633      -2.33620048       3.95459591 </v>
   <v>       1.95294995      -4.38101641      -3.08069984 </v>
   <v>      -4.21019886      -4.44700804      -0.46090883 </v>
   <v>      -1.69481215      -0.33603243       1.61818347 </v>
   <v>       0.15368052       0.76440207      -1.33817801 </v>
  </varray>
  <varray name="stress" >
   <v>      18.58597785       1.78419447      -3.03972124 </v>
   <v>       1.78435635      12.98464811       3.63203222 </v>
   <v>      -3.03672141       3.63206638     -47.83684823 </v>
  </varray>
  <energy>
   <i name="e_fr_energy">   -286.84542669 </i>
   <i name="e_wo_entrp">   -286.39903928 </i>
   <i name="e_0_energy">   -286.62223299 </i>
  </energy>
  <time name="totalsc">   45.95   46.27</time>
 </calculation>
 <calculation>
  <scstep>
   <time name="dav">    0.40    0.40</time>
   <time name="total">    1.36    1.36</time>
   <dipole>
    <v name="dipole">      0.00000000       0.00000000       0.06383248 </v>
    <i name="Tr[quadrupol]">  -1850.11528014 </i>
    <i name="Echarged">      0.00000000 </i>
    <i name="Edipol_quadrupol">      0.00000000 </i>
    <i name="Eion">      0.00000000 </i>
   </dipole>
   <energy>
    <i name="alphaZ">    597.71927525 </i>
    <i name="ewald"> 140749.42106000 </i>
    <i name="hartreedc">-165775.45064222 </i>
    <i name="XCdc">   1221.60766960 </i>
    <i name="pawpsdc">  27262.92513553 </i>
    <i name="pawaedc"> -27711.15829197 </i>
    <i name="eentropy">     -0.42087133 </i>
    <i name="bandstr">  -4100.40708567 </i>
    <i name="atom">  27468.95917810 </i>
    <i name="e_fr_energy">   -286.80457270 </i>
    <i name="e_wo_entrp">   -286.38370137 </i>
    <i name="e_0_energy">   -286.59413704 </i>
   </energy>
  </scstep>
  <scstep>
   <time name="dav">    0.45    0.45</time>
   <time name="total">    1.41    1.42</time>
   <dipole>
    <v name="dipole">      0.00000000       0.00000000       0.45930692 </v>
    <i name="Tr[quadrupol]">  -1851.73450136 </i>
    <i name="Echarged">      0.00000000 </i>
    <i name="Edipol_quadrupol">      0.00000000 </i>
    <i name="Eion">      0.00000000 </i>
   </dipole>
   <energy>
    <i name="e_fr_energy">   -303.49222949 </i>
    <i name="e_wo_entrp">   -303.12678755 </i>
    <i name="e_0_energy">   -303.30950852 </i>
   </energy>
  </scstep>
  <scstep>
   <time name="dav">    0.49    0.49</time>
   <time name="total">    1.45    1.46</time>
   <dipole>
    <v name="dipole">      0.00000000       0.00000000      -0.43491533 </v>
    <i name="Tr[quadrupol]">  -1851.51025352 </i>
    <i name="Echarged">      0.00000000 </i>
    <i name="Edipol_quadrupol">      0.00000000 </i>
    <i name="Eion">      0.00000000 </i>
   </dipole>
   <energy>
    <i name="e_fr_energy">   -306.32298038 </i>
    <i name="e_wo_entrp">   -306.14740799 </i>
    <i name="e_0_energy">   -306.23519419 </i>
   </energy>
  </scstep>
  <scstep>
   <time name="dav">    0.51    0.51</time>
   <time name="total">    1.46    1.48</time>
   <dipole>
    <v name="dipole">      0.00000000       0.00000000       0.15602445 </v>
    <i name="Tr[quadrupol]">  -1852.36647706 </i>
    <i name="Echarged">      0.00000000 </i>
    <i name="Edipol_quadrupol">      0.00000000 </i>
    <i name="Eion">      0.00000000 </i>
   </dipole>
   <energy>
    <i name="e_fr_energy">   -288.02859239 </i>
    <i name="e_wo_entrp">   -287.66616991 </i>
    <i name="e_0_energy">   -287.84738115 </i>
   </energy>
  </scstep>
  <scstep>
   <time name="dav">    0.46    0.46</time>
   <time name="total">    1.42    1.43</time>
   <dipole>
    <v name="dipole">      0.00000000       0.00000000       0.09995997 </v>
    <i name="Tr[quadrupol]">  -1853.11580077 </i>
    <i name="Echarged">      0.00000000 </i>
    <i name="Edipol_quadrupol">      0.00000000 </i>
    <i name="Eion">      0.00000000 </i>
   </dipole>
   <energy>
    <i name="e_fr_energy">   -287.09673383 </i>
    <i name="e_wo_entrp">   -286.71680862 </i>
    <i name="e_0_energy">   -286.90677123 </i>
   </energy>
  </scstep>
  <scstep>
   <time name="dav">    0.46    0.46</time>
   <time name="total">    1.42    1.43</time>
   <dipole>
    <v name="dipole">      0.00000000       0.00000000       0.14952681 </v>
    <i name="Tr[quadrupol]">  -1852.94016293 </i>
    <i name="Echarged">      0.00000000 </i>
    <i name="Edipol_quadrupol">      0.00000000 </i>
    <i name="Eion">      0.00000000 </i>
   </dipole>
   <energy>
    <i name="e_fr_energy">   -286.52830227 </i>
    <i name="e_wo_entrp">   -286.06295320 </i>
    <i name="e_0_energy">   -286.29562774 </i>
   </energy>
  </scstep>
  <scstep>
   <time name="dav">    0.45    0.45</time>
   <time name="total">    1.41    1.42</time>
   <dipole>
    <v name="dipole">      0.00000000       0.00000000       0.21376321 </v>
    <i name="Tr[quadrupol]">  -1853.08779066 </i>
    <i name="Echarged">      0.00000000 </i>
    <i name="Edipol_quadrupol">      0.00000000 </i>
    <i name="Eion">      0.00000000 </i>
   </dipole>
   <energy>
    <i name="e_fr_energy">   -285.91717168 </i>
    <i name="e_wo_entrp">   -285.57452533 </i>
    <i name="e_0_energy">   -285.74584850 </i>
   </energy>
  </scstep>
  <scstep>
   <time name="dav">    0.45    0.45</time>
   <time name="total">    1.41    1.42</time>
   <dipole>
    <v name="dipole">      0.00000000       0.00000000       0.19003706 </v>
    <i name="Tr[quadrupol]">  -1853.02479795 </i>
[...]
        <r>  0.0004  0.0014  0.0000  0.0000 </r>
        <r>  0.0002  0.0025  0.0000  0.0000 </r>
        <r>  0.0000  0.0007  0.0000  0.0000 </r>
        <r>  0.0000  0.0006  0.0000  0.0000 </r>
        <r>  0.0005  0.0007  0.0000  0.0000 </r>
        <r>  0.0001  0.0001  0.0000  0.0000 </r>
        <r>  0.0002  0.0008  0.0000  0.0000 </r>
        <r>  0.0011  0.0004  0.0000  0.0000 </r>
        <r>  0.0010  0.0025  0.0000  0.0000 </r>
        <r>  0.0005  0.0003  0.0000  0.0000 </r>
        <r>  0.0001  0.0023  0.0000  0.0000 </r>
        <r>  0.0002  0.0015  0.0000  0.0000 </r>
        <r>  0.0009  0.0007  0.0000  0.0000 </r>
        <r>  0.0008  0.0006  0.0000  0.0000 </r>
        <r>  0.0024  0.0042  0.0000  0.0000 </r>
        <r>  0.0005  0.0011  0.0000  0.0000 </r>
        <r>  0.0002  0.0029  0.0000  0.0000 </r>
        <r>  0.0002  0.0037  0.0000  0.0000 </r>
        <r>  0.0008  0.0037  0.0000  0.0000 </r>
        <r>  0.0026  0.0055  0.0000  0.0000 </r>
        <r>  0.0028  0.0003  0.0000  0.0000 </r>
       </set>
       <set comment="band 173">
        <r>  0.0001  0.0000  0.0028  0.0000 </r>
        <r>  0.0001  0.0002  0.0013  0.0000 </r>
        <r>  0.0004  0.0003  0.0108  0.0000 </r>
        <r>  0.0000  0.0000  0.0164  0.0000 </r>
        <r>  0.0000  0.0000  0.0023  0.0000 </r>
        <r>  0.0001  0.0000  0.0017  0.0000 </r>
        <r>  0.0001  0.0000  0.0005  0.0000 </r>
        <r>  0.0000  0.0000  0.0048  0.0000 </r>
        <r>  0.0002  0.0000  0.0030  0.3729 </r>
        <r>  0.0000  0.0000  0.0026  0.3996 </r>
        <r>  0.0001  0.0001  0.0060  0.0492 </r>
        <r>  0.0000  0.0001  0.0067  0.0514 </r>
        <r>  0.0000  0.0000  0.0004  0.0001 </r>
        <r>  0.0000  0.0000  0.0005  0.0008 </r>
        <r>  0.0000  0.0000  0.0000  0.0000 </r>
        <r>  0.0001  0.0001  0.0000  0.0000 </r>
        <r>  0.0000  0.0005  0.0000  0.0000 </r>
        <r>  0.0000  0.0008  0.0000  0.0000 </r>
        <r>  0.0000  0.0019  0.0000  0.0000 </r>
        <r>  0.0000  0.0013  0.0000  0.0000 </r>
        <r>  0.0000  0.0014  0.0000  0.0000 </r>
        <r>  0.0003  0.0017  0.0000  0.0000 </r>
        <r>  0.0000  0.0004  0.0000  0.0000 </r>
        <r>  0.0000  0.0002  0.0000  0.0000 </r>
        <r>  0.0000  0.0004  0.0000  0.0000 </r>
        <r>  0.0000  0.0005  0.0000  0.0000 </r>
        <r>  0.0001  0.0003  0.0000  0.0000 </r>
        <r>  0.0000  0.0000  0.0000  0.0000 </r>
        <r>  0.0001  0.0001  0.0000  0.0000 </r>
        <r>  0.0001  0.0002  0.0000  0.0000 </r>
        <r>  0.0000  0.0001  0.0000  0.0000 </r>
        <r>  0.0000  0.0001  0.0000  0.0000 </r>
        <r>  0.0000  0.0002  0.0000  0.0000 </r>
        <r>  0.0000  0.0002  0.0000  0.0000 </r>
        <r>  0.0001  0.0002  0.0000  0.0000 </r>
        <r>  0.0001  0.0000  0.0000  0.0000 </r>
       </set>
       <set comment="band 174">
        <r>  0.0001  0.0002  0.0017  0.0000 </r>
        <r>  0.0003  0.0004  0.0022  0.0000 </r>
        <r>  0.0005  0.0003  0.0028  0.0000 </r>
        <r>  0.0000  0.0004  0.0166  0.0000 </r>
        <r>  0.0003  0.0000  0.0018  0.0000 </r>
        <r>  0.0001  0.0000  0.0066  0.0000 </r>
        <r>  0.0003  0.0001  0.0003  0.0000 </r>
        <r>  0.0001  0.0000  0.0031  0.0000 </r>
        <r>  0.0000  0.0001  0.0070  0.4941 </r>
        <r>  0.0002  0.0002  0.0035  0.2331 </r>
        <r>  0.0001  0.0001  0.0035  0.0622 </r>
        <r>  0.0000  0.0000  0.0047  0.0874 </r>
        <r>  0.0000  0.0000  0.0001  0.0005 </r>
        <r>  0.0000  0.0000  0.0002  0.0008 </r>
        <r>  0.0000  0.0007  0.0000  0.0000 </r>
        <r>  0.0000  0.0008  0.0000  0.0000 </r>
        <r>  0.0001  0.0005  0.0000  0.0000 </r>
        <r>  0.0002  0.0008  0.0000  0.0000 </r>
        <r>  0.0003  0.0016  0.0000  0.0000 </r>
        <r>  0.0001  0.0007  0.0000  0.0000 </r>
        <r>  0.0002  0.0010  0.0000  0.0000 </r>
        <r>  0.0000  0.0015  0.0000  0.0000 </r>
        <r>  0.0001  0.0003  0.0000  0.0000 </r>
        <r>  0.0000  0.0002  0.0000  0.0000 </r>
        <r>  0.0000  0.0008  0.0000  0.0000 </r>
        <r>  0.0001  0.0000  0.0000  0.0000 </r>
        <r>  0.0002  0.0002  0.0000  0.0000 </r>
        <r>  0.0001  0.0002  0.0000  0.0000 </r>
        <r>  0.0000  0.0005  0.0000  0.0000 </r>
        <r>  0.0000  0.0002  0.0000  0.0000 </r>
        <r>  0.0000  0.0000  0.0000  0.0000 </r>
        <r>  0.0000  0.0001  0.0000  0.0000 </r>
        <r>  0.0000  0.0001  0.0000  0.0000 </r>
        <r>  0.0000  0.0002  0.0000  0.0000 </r>
        <r>  0.0000  0.0001  0.0000  0.0000 </r>
        <r>  0.0000  0.0000  0.0000  0.0000 </r>
       </set>
       <set comment="band 175">
        <r>  0.0017  0.0002  0.0069  0.0000 </r>
        <r>  0.0005  0.0009  0.0023  0.0000 </r>
        <r>  0.0021  0.0004  0.0023  0.0000 </r>
        <r>  0.0003  0.0001  0.0330  0.0000 </r>
        <r>  0.0015  0.0004  0.0111  0.0000 </r>
        <r>  0.0009  0.0006  0.0434  0.0000 </r>
        <r>  0.0002  0.0007  0.0035  0.0000 </r>
        <r>  0.0000  0.0001  0.0059  0.0000 </r>
        <r>  0.0000  0.0001  0.0120  0.2600 </r>
        <r>  0.0000  0.0002  0.0140  0.2551 </r>
        <r>  0.0000  0.0001  0.0082  0.0994 </r>
        <r>  0.0000  0.0001  0.0042  0.1046 </r>
        <r>  0.0002  0.0000  0.0012  0.0051 </r>
        <r>  0.0002  0.0000  0.0010  0.0062 </r>
        <r>  0.0001  0.0043  0.0000  0.0000 </r>
        <r>  0.0000  0.0047  0.0000  0.0000 </r>
        <r>  0.0000  0.0007  0.0000  0.0000 </r>
        <r>  0.0010  0.0017  0.0000  0.0000 </r>
        <r>  0.0007  0.0022  0.0000  0.0000 </r>
        <r>  0.0004  0.0013  0.0000  0.0000 </r>
        <r>  0.0007  0.0021  0.0000  0.0000 </r>
        <r>  0.0000  0.0001  0.0000  0.0000 </r>
        <r>  0.0017  0.0010  0.0000  0.0000 </r>
        <r>  0.0009  0.0039  0.0000  0.0000 </r>
        <r>  0.0003  0.0011  0.0000  0.0000 </r>
        <r>  0.0002  0.0007  0.0000  0.0000 </r>
        <r>  0.0007  0.0015  0.0000  0.0000 </r>
        <r>  0.0003  0.0004  0.0000  0.0000 </r>
        <r>  0.0001  0.0031  0.0000  0.0000 </r>
        <r>  0.0000  0.0000  0.0000  0.0000 </r>
        <r>  0.0000  0.0000  0.0000  0.0000 </r>
        <r>  0.0000  0.0002  0.0000  0.0000 </r>
        <r>  0.0000  0.0005  0.0000  0.0000 </r>
        <r>  0.0000  0.0005  0.0000  0.0000 </r>
        <r>  0.0002  0.0003  0.0000  0.0000 </r>
        <r>  0.0002  0.0000  0.0000  0.0000 </r>
       </set>
       <set comment="band 176">
        <r>  0.0000  0.0003  0.0006  0.0000 </r>
        <r>  0.0002  0.0000  0.0018  0.0000 </r>
        <r>  0.0007  0.0003  0.0074  0.0000 </r>
        <r>  0.0002  0.0001  0.0083  0.0000 </r>
        <r>  0.0025  0.0001  0.0160  0.0000 </r>
        <r>  0.0014  0.0000  0.0459  0.0000 </r>
        <r>  0.0019  0.0002  0.0016  0.0000 </r>
        <r>  0.0006  0.0001  0.0267  0.0000 </r>
        <r>  0.0000  0.0000  0.0049  0.0675 </r>
        <r>  0.0000  0.0000  0.0032  0.1460 </r>
        <r>  0.0010  0.0002  0.0077  0.2216 </r>
        <r>  0.0010  0.0002  0.0086  0.3048 </r>
        <r>  0.0000  0.0001  0.0007  0.0047 </r>
        <r>  0.0000  0.0001  0.0008  0.0077 </r>
        <r>  0.0000  0.0012  0.0000  0.0000 </r>
        <r>  0.0000  0.0010  0.0000  0.0000 </r>
        <r>  0.0004  0.0002  0.0000  0.0000 </r>
        <r>  0.0001  0.0008  0.0000  0.0000 </r>
        <r>  0.0004  0.0002  0.0000  0.0000 </r>
        <r>  0.0000  0.0002  0.0000  0.0000 </r>
        <r>  0.0000  0.0003  0.0000  0.0000 </r>
        <r>  0.0000  0.0008  0.0000  0.0000 </r>
        <r>  0.0002  0.0014  0.0000  0.0000 </r>
        <r>  0.0005  0.0007  0.0000  0.0000 </r>
        <r>  0.0006  0.0029  0.0000  0.0000 </r>
        <r>  0.0010  0.0019  0.0000  0.0000 </r>
        <r>  0.0005  0.0029  0.0000  0.0000 </r>
        <r>  0.0005  0.0026  0.0000  0.0000 </r>
        <r>  0.0003  0.0015  0.0000  0.0000 </r>
        <r>  0.0001  0.0022  0.0000  0.0000 </r>
        <r>  0.0001  0.0004  0.0000  0.0000 </r>
        <r>  0.0001  0.0006  0.0000  0.0000 </r>
        <r>  0.0002  0.0009  0.0000  0.0000 </r>
        <r>  0.0003  0.0013  0.0000  0.0000 </r>
        <r>  0.0003  0.0011  0.0000  0.0000 </r>
        <r>  0.0003  0.0001  0.0000  0.0000 </r>
       </set>
       <set comment="band 177">
        <r>  0.0001  0.0002  0.0035  0.0000 </r>
        <r>  0.0001  0.0004  0.0020  0.0000 </r>
        <r>  0.0009  0.0001  0.0019  0.0000 </r>
        <r>  0.0001  0.0000  0.0117  0.0000 </r>
        <r>  0.0002  0.0002  0.0032  0.0000 </r>
        <r>  0.0002  0.0001  0.0071  0.0000 </r>
        <r>  0.0001  0.0001  0.0009  0.0000 </r>
        <r>  0.0000  0.0001  0.0051  0.0000 </r>
        <r>  0.0004  0.0003  0.0121  0.4301 </r>
        <r>  0.0001  0.0003  0.0099  0.1668 </r>
        <r>  0.0001  0.0001  0.0112  0.1271 </r>
        <r>  0.0000  0.0001  0.0091  0.0811 </r>
        <r>  0.0001  0.0000  0.0016  0.0021 </r>
        <r>  0.0001  0.0000  0.0027  0.0068 </r>
        <r>  0.0000  0.0023  0.0000  0.0000 </r>
        <r>  0.0002  0.0046  0.0000  0.0000 </r>
        <r>  0.0001  0.0026  0.0000  0.0000 </r>
        <r>  0.0003  0.0014  0.0000  0.0000 </r>
        <r>  0.0002  0.0011  0.0000  0.0000 </r>
        <r>  0.0001  0.0031  0.0000  0.0000 </r>
        <r>  0.0001  0.0024  0.0000  0.0000 </r>
        <r>  0.0005  0.0003  0.0000  0.0000 </r>
        <r>  0.0000  0.0005  0.0000  0.0000 </r>
        <r>  0.0006  0.0007  0.0000  0.0000 </r>
        <r>  0.0000  0.0004  0.0000  0.0000 </r>
        <r>  0.0000  0.0021  0.0000  0.0000 </r>
        <r>  0.0002  0.0014  0.0000  0.0000 </r>
        <r>  0.0000  0.0001  0.0000  0.0000 </r>
        <r>  0.0003  0.0005  0.0000  0.0000 </r>
        <r>  0.0000  0.0002  0.0000  0.0000 </r>
        <r>  0.0000  0.0001  0.0000  0.0000 </r>
        <r>  0.0000  0.0002  0.0000  0.0000 </r>
        <r>  0.0000  0.0003  0.0000  0.0000 </r>
        <r>  0.0000  0.0003  0.0000  0.0000 </r>
        <r>  0.0001  0.0002  0.0000  0.0000 </r>
        <r>  0.0001  0.0000  0.0000  0.0000 </r>
       </set>
       <set comment="band 178">
        <r>  0.0009  0.0006  0.0034  0.0000 </r>
        <r>  0.0004  0.0003  0.0014  0.0000 </r>
        <r>  0.0000  0.0002  0.0018  0.0000 </r>
        <r>  0.0000  0.0001  0.0176  0.0000 </r>
        <r>  0.0001  0.0002  0.0053  0.0000 </r>
        <r>  0.0000  0.0000  0.0071  0.0000 </r>
        <r>  0.0008  0.0000  0.0007  0.0000 </r>
        <r>  0.0003  0.0001  0.0155  0.0000 </r>
        <r>  0.0000  0.0002  0.0110  0.2620 </r>
        <r>  0.0002  0.0001  0.0077  0.2699 </r>
        <r>  0.0001  0.0002  0.0098  0.1147 </r>
        <r>  0.0003  0.0001  0.0118  0.1602 </r>
        <r>  0.0000  0.0000  0.0007  0.0032 </r>
        <r>  0.0000  0.0001  0.0003  0.0035 </r>
        <r>  0.0001  0.0021  0.0000  0.0000 </r>
        <r>  0.0000  0.0009  0.0000  0.0000 </r>
        <r>  0.0007  0.0013  0.0000  0.0000 </r>
        <r>  0.0007  0.0001  0.0000  0.0000 </r>
        <r>  0.0005  0.0000  0.0000  0.0000 </r>
        <r>  0.0004  0.0009  0.0000  0.0000 </r>
        <r>  0.0007  0.0005  0.0000  0.0000 </r>
        <r>  0.0005  0.0017  0.0000  0.0000 </r>
        <r>  0.0001  0.0011  0.0000  0.0000 </r>
        <r>  0.0007  0.0005  0.0000  0.0000 </r>
        <r>  0.0000  0.0006  0.0000  0.0000 </r>
        <r>  0.0001  0.0008  0.0000  0.0000 </r>
        <r>  0.0001  0.0002  0.0000  0.0000 </r>
        <r>  0.0000  0.0003  0.0000  0.0000 </r>
        <r>  0.0001  0.0002  0.0000  0.0000 </r>
        <r>  0.0001  0.0009  0.0000  0.0000 </r>
        <r>  0.0001  0.0001  0.0000  0.0000 </r>
        <r>  0.0001  0.0006  0.0000  0.0000 </r>
        <r>  0.0001  0.0005  0.0000  0.0000 </r>
        <r>  0.0001  0.0004  0.0000  0.0000 </r>
        <r>  0.0003  0.0005  0.0000  0.0000 </r>
        <r>  0.0003  0.0000  0.0000  0.0000 </r>
       </set>
       <set comment="band 179">
        <r>  0.0001  0.0002  0.0038  0.0000 </r>
        <r>  0.0001  0.0005  0.0030  0.0000 </r>
        <r>  0.0002  0.0003  0.0012  0.0000 </r>
        <r>  0.0000  0.0002  0.0044  0.0000 </r>
        <r>  0.0012  0.0004  0.0117  0.0000 </r>
        <r>  0.0005  0.0000  0.0216  0.0000 </r>
        <r>  0.0022  0.0002  0.0022  0.0000 </r>
        <r>  0.0008  0.0002  0.0464  0.0000 </r>
        <r>  0.0000  0.0000  0.0015  0.1740 </r>
        <r>  0.0000  0.0000  0.0070  0.3846 </r>
        <r>  0.0001  0.0000  0.0043  0.0760 </r>
        <r>  0.0000  0.0000  0.0077  0.1344 </r>
        <r>  0.0000  0.0000  0.0019  0.0069 </r>
        <r>  0.0000  0.0000  0.0017  0.0121 </r>
        <r>  0.0000  0.0008  0.0000  0.0000 </r>
        <r>  0.0000  0.0022  0.0000  0.0000 </r>
        <r>  0.0000  0.0075  0.0000  0.0000 </r>
        <r>  0.0000  0.0002  0.0000  0.0000 </r>
        <r>  0.0001  0.0017  0.0000  0.0000 </r>
        <r>  0.0000  0.0003  0.0000  0.0000 </r>
        <r>  0.0000  0.0004  0.0000  0.0000 </r>
        <r>  0.0000  0.0009  0.0000  0.0000 </r>
        <r>  0.0001  0.0019  0.0000  0.0000 </r>
        <r>  0.0001  0.0005  0.0000  0.0000 </r>
        <r>  0.0001  0.0012  0.0000  0.0000 </r>
        <r>  0.0003  0.0004  0.0000  0.0000 </r>
        <r>  0.0002  0.0004  0.0000  0.0000 </r>
        <r>  0.0001  0.0012  0.0000  0.0000 </r>
        <r>  0.0003  0.0004  0.0000  0.0000 </r>
        <r>  0.0007  0.0028  0.0000  0.0000 </r>
        <r>  0.0002  0.0005  0.0000  0.0000 </r>
        <r>  0.0002  0.0013  0.0000  0.0000 </r>
        <r>  0.0002  0.0016  0.0000  0.0000 </r>
        <r>  0.0004  0.0011  0.0000  0.0000 </r>
        <r>  0.0007  0.0018  0.0000  0.0000 </r>
        <r>  0.0007  0.0001  0.0000  0.0000 </r>
       </set>
       <set comment="band 180">
        <r>  0.0002  0.0001  0.0007  0.0000 </r>
        <r>  0.0000  0.0004  0.0023  0.0000 </r>
        <r>  0.0023  0.0001  0.0144  0.0000 </r>
        <r>  0.0011  0.0001  0.0067  0.0000 </r>
        <r>  0.0047  0.0010  0.0394  0.0000 </r>
        <r>  0.0027  0.0002  0.0785  0.0000 </r>
        <r>  0.0069  0.0004  0.0076  0.0000 </r>
        <r>  0.0033  0.0004  0.1275  0.0000 </r>
        <r>  0.0000  0.0000  0.0012  0.0271 </r>
        <r>  0.0001  0.0001  0.0011  0.1840 </r>
        <r>  0.0000  0.0001  0.0076  0.1204 </r>
        <r>  0.0002  0.0003  0.0078  0.1750 </r>
        <r>  0.0000  0.0002  0.0047  0.0182 </r>
        <r>  0.0000  0.0001  0.0025  0.0143 </r>
        <r>  0.0000  0.0004  0.0000  0.0000 </r>
        <r>  0.0000  0.0007  0.0000  0.0000 </r>
        <r>  0.0000  0.0049  0.0000  0.0000 </r>
        <r>  0.0000  0.0003  0.0000  0.0000 </r>
        <r>  0.0002  0.0009  0.0000  0.0000 </r>
        <r>  0.0007  0.0010  0.0000  0.0000 </r>
        <r>  0.0003  0.0006  0.0000  0.0000 </r>
        <r>  0.0000  0.0013  0.0000  0.0000 </r>
        <r>  0.0000  0.0028  0.0000  0.0000 </r>
        <r>  0.0000  0.0007  0.0000  0.0000 </r>
        <r>  0.0007  0.0027  0.0000  0.0000 </r>
        <r>  0.0010  0.0027  0.0000  0.0000 </r>
        <r>  0.0005  0.0006  0.0000  0.0000 </r>
        <r>  0.0016  0.0052  0.0000  0.0000 </r>
        <r>  0.0011  0.0019  0.0000  0.0000 </r>
        <r>  0.0013  0.0100  0.0000  0.0000 </r>
        <r>  0.0006  0.0018  0.0000  0.0000 </r>
        <r>  0.0006  0.0030  0.0000  0.0000 </r>
        <r>  0.0008  0.0051  0.0000  0.0000 </r>
        <r>  0.0011  0.0032  0.0000  0.0000 </r>
        <r>  0.0018  0.0045  0.0000  0.0000 </r>
        <r>  0.0019  0.0003  0.0000  0.0000 </r>
       </set>
      </set>
     </set>
    </set>
   </array>
  </projected>
 </calculation>
 <structure name="finalpos" >
  <crystal>
   <varray name="basis" >
    <v>       5.53670000       0.00000000       0.00000000 </v>
    <v>       0.00000000       5.74730000       0.00000000 </v>
    <v>       0.00000000       0.00000000      29.09039264 </v>
   </varray>
   <i name="volume">    925.68759245 </i>
   <varray name="rec_basis" >
    <v>       0.18061300       0.00000000       0.00000000 </v>
    <v>       0.00000000       0.17399475       0.00000000 </v>
    <v>       0.00000000       0.00000000       0.03437561 </v>
   </varray>
  </crystal>
  <varray name="positions" >
   <v>       0.00000000       0.50000000       0.00343756 </v>
   <v>       0.50000000       0.00000000       0.00343756 </v>
   <v>       0.50000000       0.00000000       0.13566163 </v>
   <v>       0.00000000       0.50000000       0.13566163 </v>
   <v>       0.00003170       0.50346480       0.26911305 </v>
   <v>       0.50127007       0.00293410       0.26899784 </v>
   <v>       0.47534720       0.00941364       0.39810016 </v>
   <v>       0.01745838       0.51164742       0.40612332 </v>
   <v>       0.50780000       0.54900000       0.06954959 </v>
   <v>       0.99220000       0.04900000       0.06954959 </v>
   <v>       0.49220000       0.45100000       0.20177366 </v>
   <v>       0.00780000       0.95100000       0.20177366 </v>
   <v>       0.51569126       0.54373383       0.33569380 </v>
   <v>       0.98422339       0.04379891       0.33554345 </v>
   <v>       0.77440000       0.80660000       0.01359237 </v>
   <v>       0.72560000       0.30660000       0.01359237 </v>
   <v>       0.42550000       0.98740000       0.06954959 </v>
   <v>       0.07450000       0.48740000       0.06954959 </v>
   <v>       0.72560000       0.30660000       0.12550682 </v>
   <v>       0.77440000       0.80660000       0.12550682 </v>
   <v>       0.22560000       0.19340000       0.14581644 </v>
   <v>       0.27440000       0.69340000       0.14581644 </v>
   <v>       0.57450000       0.01260000       0.20177366 </v>
   <v>       0.92550000       0.51260000       0.20177366 </v>
   <v>       0.28196040       0.69931242       0.25785755 </v>
   <v>       0.21826459       0.19923638       0.25793559 </v>
   <v>       0.78634109       0.81829248       0.27841860 </v>
   <v>       0.71413600       0.31815125       0.27838947 </v>
   <v>       0.42532976       0.98915967       0.33344485 </v>
   <v>       0.07507986       0.48803608       0.33317796 </v>
   <v>       0.71184741       0.28513265       0.38968364 </v>
   <v>       0.78726149       0.79289953       0.39043591 </v>
   <v>       0.21808206       0.16815240       0.41136394 </v>
   <v>       0.28934270       0.67468526       0.41056392 </v>
   <v>       0.99387355       0.50773564       0.46981837 </v>
   <v>       0.00104708       0.56407796       0.50216974 </v>
  </varray>
  <varray name="selective"  type="logical" >
   <v type="logical" >  F  F  F </v>
   <v type="logical" >  F  F  F </v>
   <v type="logical" >  F  F  F </v>
   <v type="logical" >  F  F  F </v>
   <v type="logical" >  T  T  T </v>
   <v type="logical" >  T  T  T </v>
   <v type="logical" >  T  T  T </v>
   <v type="logical" >  T  T  T </v>
   <v type="logical" >  F  F  F </v>
   <v type="logical" >  F  F  F </v>
   <v type="logical" >  F  F  F </v>
   <v type="logical" >  F  F  F </v>
   <v type="logical" >  T  T  T </v>
   <v type="logical" >  T  T  T </v>
   <v type="logical" >  F  F  F </v>
   <v type="logical" >  F  F  F </v>
   <v type="logical" >  F  F  F </v>
   <v type="logical" >  F  F  F </v>
   <v type="logical" >  F  F  F </v>
   <v type="logical" >  F  F  F </v>
   <v type="logical" >  F  F  F </v>
   <v type="logical" >  F  F  F </v>
   <v type="logical" >  F  F  F </v>
   <v type="logical" >  F  F  F </v>
   <v type="logical" >  T  T  T </v>
   <v type="logical" >  T  T  T </v>
   <v type="logical" >  T  T  T </v>
   <v type="logical" >  T  T  T </v>
   <v type="logical" >  T  T  T </v>
   <v type="logical" >  T  T  T </v>
   <v type="logical" >  T  T  T </v>
   <v type="logical" >  T  T  T </v>
   <v type="logical" >  T  T  T </v>
   <v type="logical" >  T  T  T </v>
   <v type="logical" >  T  T  T </v>
   <v type="logical" >  T  T  T </v>
  </varray>
  <nose>
   <v>      -3.00000000       0.00000000       0.00010000       0.00010000 </v>
  </nose>
 </structure>
</modeling>
