 running   40 mpi-ranks, on    1 nodes
 distrk:  each k-point on   40 cores,    1 groups
 distr:  one band on    4 cores,   10 groups
 vasp.6.4.3 19Mar24 (build Jul 09 2024 15:45:28) complex                        
  
 POSCAR found type information on POSCAR CrLaO H 
 POSCAR found :  4 types and      36 ions
 scaLAPACK will be used
 -----------------------------------------------------------------------------
|                                                                             |
|           W    W    AA    RRRRR   N    N  II  N    N   GGGG   !!!           |
|           W    W   A  A   R    R  NN   N  II  NN   N  G    G  !!!           |
|           W    W  A    A  R    R  N N  N  II  N N  N  G       !!!           |
|           W WW W  AAAAAA  RRRRR   N  N N  II  N  N N  G  GGG   !            |
|           WW  WW  A    A  R   R   N   NN  II  N   NN  G    G                |
|           W    W  A    A  R    R  N    N  II  N    N   GGGG   !!!           |
|                                                                             |
|     The real-space projection scheme for the treatment of the non-local     |
|     pseudopotentials has been switched on but on file POTCAR I have not     |
|     found any entries, signalling me that you have never performed a        |
|     real-space optimization of all non-local projectors! BE WARNED that     |
|     a calculation using the real-space projection scheme together with      |
|     non-local projectors which were not real-space optimized (according     |
|     to the plane-wave cutoff used in this calculation) might give more      |
|     or less inaccurate results. I hope you know what you are doing.         |
|                                                                             |
 -----------------------------------------------------------------------------

 LDA part: xc-table for (Slater+PW92), standard interpolation
 POSCAR found type information on POSCAR CrLaO H 
 POSCAR found :  4 types and      36 ions
 POSCAR, INCAR and KPOINTS ok, starting setup
 FFT: planning ... GRIDC
 FFT: planning ... GRID_SOFT
 FFT: planning ... GRID
 WAVECAR not read
 WARNING: random wavefunctions but no delay for mixing, default for NELMDL
 entering main loop
       N       E                     dE             d eps       ncg     rms          rms(c)
DAV:   1     0.447327568406E+04    0.44733E+04   -0.10915E+05   760   0.166E+03
DAV:   2     0.954962183526E+03   -0.35183E+04   -0.32100E+04   800   0.525E+02
DAV:   3    -0.174579057300E+03   -0.11295E+04   -0.10858E+04  1040   0.251E+02
DAV:   4    -0.357471703003E+03   -0.18289E+03   -0.17810E+03  1160   0.102E+02
DAV:   5    -0.369547665173E+03   -0.12076E+02   -0.11488E+02  1340   0.287E+01    0.858E+01
DAV:   6    -0.589056730267E+03   -0.21951E+03   -0.59144E+03  1200   0.167E+02    0.304E+02
DAV:   7    -0.417730564298E+03    0.17133E+03   -0.14111E+03  1320   0.176E+02    0.159E+02
DAV:   8    -0.112006704957E+04   -0.70234E+03   -0.52960E+03  1320   0.170E+02    0.759E+02
DAV:   9    -0.138305068029E+04   -0.26298E+03   -0.10462E+03  1280   0.768E+01    0.131E+03
DAV:  10    -0.782021434183E+03    0.60103E+03   -0.36659E+02  1100   0.689E+01    0.165E+02
DAV:  11    -0.187780100054E+03    0.59424E+03   -0.43224E+03  1140   0.122E+02    0.121E+02
DAV:  12    -0.322445751691E+03   -0.13467E+03   -0.16850E+03  1340   0.103E+02    0.797E+01
DAV:  13    -0.344852814536E+03   -0.22407E+02   -0.52970E+02  1180   0.524E+01    0.787E+01
DAV:  14    -0.318004458679E+03    0.26848E+02   -0.17911E+02  1200   0.339E+01    0.502E+01
DAV:  15    -0.326765095554E+03   -0.87606E+01   -0.28569E+02  1140   0.319E+01    0.697E+01
DAV:  16    -0.306797140473E+03    0.19968E+02   -0.77247E+01  1160   0.247E+01    0.475E+01
DAV:  17    -0.304581340409E+03    0.22158E+01   -0.66432E+01  1060   0.208E+01    0.535E+01
DAV:  18    -0.298524968037E+03    0.60564E+01   -0.95319E+01  1080   0.163E+01    0.446E+01
DAV:  19    -0.292006303122E+03    0.65187E+01   -0.42753E+01  1060   0.137E+01    0.331E+01
DAV:  20    -0.291307233783E+03    0.69907E+00   -0.22136E+01  1200   0.780E+00    0.348E+01
DAV:  21    -0.288164900271E+03    0.31423E+01   -0.55873E+00  1060   0.602E+00    0.194E+01
DAV:  22    -0.288492747640E+03   -0.32785E+00   -0.27575E+00  1300   0.296E+00    0.200E+01
DAV:  23    -0.288516201163E+03   -0.23454E-01   -0.41569E-01  1200   0.147E+00    0.191E+01
DAV:  24    -0.288627572061E+03   -0.11137E+00   -0.43517E-01  1120   0.106E+00    0.200E+01
DAV:  25    -0.288449594044E+03    0.17798E+00   -0.54220E-02   980   0.626E-01    0.191E+01
DAV:  26    -0.288551637739E+03   -0.10204E+00   -0.13931E+00  1040   0.158E+00    0.196E+01
DAV:  27    -0.288509906196E+03    0.41732E-01   -0.43174E-02  1100   0.633E-01    0.195E+01
DAV:  28    -0.288191617719E+03    0.31829E+00   -0.83345E-01  1080   0.190E+00    0.194E+01
DAV:  29    -0.288543695679E+03   -0.35208E+00   -0.73111E+00  1140   0.397E+00    0.242E+01
DAV:  30    -0.288329304488E+03    0.21439E+00   -0.13532E+00  1300   0.274E+00
 -----------------------------------------------------------------------------
|                                                                             |
|           W    W    AA    RRRRR   N    N  II  N    N   GGGG   !!!           |
|           W    W   A  A   R    R  NN   N  II  NN   N  G    G  !!!           |
|           W    W  A    A  R    R  N N  N  II  N N  N  G       !!!           |
|           W WW W  AAAAAA  RRRRR   N  N N  II  N  N N  G  GGG   !            |
|           WW  WW  A    A  R   R   N   NN  II  N   NN  G    G                |
|           W    W  A    A  R    R  N    N  II  N    N   GGGG   !!!           |
|                                                                             |
|     The electronic self-consistency was not achieved in the given           |
|     number of steps (NELM). The forces and other quantities evaluated       |
|     might not be reliable so examine the results carefully. If you find     |
|     spurious results, we suggest increasing NELM, if you were close to      |
|     convergence or switching to a different ALGO or adjusting the           |
|     density mixing parameters otherwise.                                    |
|                                                                             |
 -----------------------------------------------------------------------------

   1 F= -.28832930E+03 E0= -.28811663E+03  d E =-.288329E+03  mag=     8.0554
 curvature:   0.00 expect dE= 0.000E+00 dE for cont linesearch  0.000E+00
 trial: gam= 0.00000 g(F)=  0.290E+01 g(S)=  0.000E+00 ort = 0.000E+00 (trialstep = 0.100E+01)
 search vector abs. value=  0.290E+01
 bond charge predicted
       N       E                     dE             d eps       ncg     rms          rms(c)
DAV:   1    -0.287152376008E+03    0.13913E+01   -0.21683E+02   840   0.536E+01    0.223E+01
DAV:   2    -0.591587821163E+03   -0.30444E+03   -0.16750E+03  1320   0.850E+01    0.309E+02
DAV:   3    -0.465277207925E+03    0.12631E+03   -0.37849E+02  1200   0.497E+01    0.689E+02
DAV:   4    -0.467455227491E+03   -0.21780E+01   -0.11524E+02  1340   0.145E+01    0.145E+03
DAV:   5    -0.432703117729E+03    0.34752E+02   -0.28891E+01  1160   0.955E+00    0.132E+03
DAV:   6    -0.352317675799E+03    0.80385E+02   -0.70399E+01  1220   0.208E+01    0.105E+03
DAV:   7    -0.351651389899E+03    0.66629E+00   -0.48875E+00  1320   0.696E+00    0.105E+03
DAV:   8    -0.350611537836E+03    0.10399E+01   -0.51938E-01  1360   0.226E+00    0.105E+03
DAV:   9    -0.351292460505E+03   -0.68092E+00   -0.23601E+00  1100   0.320E+00    0.105E+03
DAV:  10    -0.350183543619E+03    0.11089E+01   -0.42740E-01  1220   0.167E+00    0.105E+03
DAV:  11    -0.350475143260E+03   -0.29160E+00   -0.24537E-02  1180   0.495E-01    0.105E+03
DAV:  12    -0.348942047588E+03    0.15331E+01   -0.12434E-01  1020   0.140E+00    0.105E+03
DAV:  13    -0.348933587837E+03    0.84598E-02   -0.18116E-01  1100   0.955E-01    0.105E+03
DAV:  14    -0.347947433506E+03    0.98615E+00   -0.25948E-02  1300   0.630E-01    0.105E+03
DAV:  15    -0.347418331242E+03    0.52910E+00   -0.21769E-02  1200   0.625E-01    0.105E+03
DAV:  16    -0.339071161931E+03    0.83472E+01   -0.10131E+00  1120   0.377E+00    0.104E+03
DAV:  17    -0.329805097759E+03    0.92661E+01   -0.20903E+01  1180   0.121E+01    0.863E+01
DAV:  18    -0.291341063211E+03    0.38464E+02   -0.13683E+02  1000   0.290E+01    0.430E+01
DAV:  19    -0.307441358938E+03   -0.16100E+02   -0.19255E+02  1220   0.272E+01    0.586E+01
DAV:  20    -0.294342217576E+03    0.13099E+02   -0.60544E+01  1020   0.208E+01    0.326E+01
DAV:  21    -0.290510666999E+03    0.38316E+01   -0.28914E+01  1080   0.123E+01    0.305E+01
DAV:  22    -0.290868021532E+03   -0.35735E+00   -0.25340E+01  1060   0.999E+00    0.353E+01
DAV:  23    -0.287275086006E+03    0.35929E+01   -0.13075E+01  1020   0.668E+00    0.186E+01
DAV:  24    -0.286943764968E+03    0.33132E+00   -0.26967E+00  1220   0.398E+00    0.155E+01
DAV:  25    -0.286907905345E+03    0.35860E-01   -0.19451E+00  1100   0.277E+00    0.146E+01
DAV:  26    -0.286870770203E+03    0.37135E-01   -0.11464E-01  1300   0.100E+00    0.148E+01
DAV:  27    -0.286731556064E+03    0.13921E+00   -0.25242E-01   880   0.975E-01    0.141E+01
DAV:  28    -0.286956450579E+03   -0.22489E+00   -0.68584E-01   920   0.157E+00    0.156E+01
DAV:  29    -0.286759003580E+03    0.19745E+00   -0.10150E+00   900   0.210E+00    0.128E+01
DAV:  30    -0.286845426692E+03   -0.86423E-01   -0.29836E-01  1320   0.119E+00
 -----------------------------------------------------------------------------
|                                                                             |
|           W    W    AA    RRRRR   N    N  II  N    N   GGGG   !!!           |
|           W    W   A  A   R    R  NN   N  II  NN   N  G    G  !!!           |
|           W    W  A    A  R    R  N N  N  II  N N  N  G       !!!           |
|           W WW W  AAAAAA  RRRRR   N  N N  II  N  N N  G  GGG   !            |
|           WW  WW  A    A  R   R   N   NN  II  N   NN  G    G                |
|           W    W  A    A  R    R  N    N  II  N    N   GGGG   !!!           |
|                                                                             |
|     The electronic self-consistency was not achieved in the given           |
|     number of steps (NELM). The forces and other quantities evaluated       |
|     might not be reliable so examine the results carefully. If you find     |
|     spurious results, we suggest increasing NELM, if you were close to      |
|     convergence or switching to a different ALGO or adjusting the           |
|     density mixing parameters otherwise.                                    |
|                                                                             |
 -----------------------------------------------------------------------------

   2 F= -.28684543E+03 E0= -.28662223E+03  d E =0.148388E+01  mag=     8.2281
 trial-energy change:    1.483878  1 .order   -1.178505   -2.897012    0.540001
 step:   0.8429(harm=  0.8429)  dis= 0.06532  next Energy=  -289.550231 (dE=-0.122E+01)
 bond charge predicted
       N       E                     dE             d eps       ncg     rms          rms(c)
DAV:   1    -0.286804572703E+03   -0.45569E-01   -0.53921E+00   880   0.897E+00    0.138E+01
DAV:   2    -0.303492229487E+03   -0.16688E+02   -0.10481E+02  1020   0.227E+01    0.616E+01
DAV:   3    -0.306322980379E+03   -0.28308E+01   -0.22032E+02  1120   0.293E+01    0.590E+01
DAV:   4    -0.288028592388E+03    0.18294E+02   -0.11487E+02  1160   0.192E+01    0.228E+01
DAV:   5    -0.287096733833E+03    0.93186E+00   -0.19731E+01  1040   0.909E+00    0.183E+01
DAV:   6    -0.286528302274E+03    0.56843E+00   -0.12966E+01  1040   0.729E+00    0.176E+01
DAV:   7    -0.285917171678E+03    0.61113E+00   -0.48356E+00  1020   0.425E+00    0.108E+01
DAV:   8    -0.285891489365E+03    0.25682E-01   -0.31071E+00  1020   0.315E+00    0.125E+01
DAV:   9    -0.285695711252E+03    0.19578E+00   -0.29650E+00   980   0.267E+00    0.112E+01
DAV:  10    -0.285470500784E+03    0.22521E+00   -0.30578E-01  1020   0.139E+00    0.105E+01
DAV:  11    -0.285503747170E+03   -0.33246E-01   -0.20470E-01  1080   0.849E-01    0.877E+00
DAV:  12    -0.285637989381E+03   -0.13424E+00   -0.38354E-01   980   0.141E+00    0.798E+00
DAV:  13    -0.285968374071E+03   -0.33038E+00   -0.19698E-01  1100   0.144E+00    0.817E+00
DAV:  14    -0.286195882321E+03   -0.22751E+00   -0.52531E-01  1040   0.172E+00    0.633E+00
DAV:  15    -0.286360671531E+03   -0.16479E+00   -0.11507E-01  1120   0.870E-01    0.627E+00
DAV:  16    -0.286323662628E+03    0.37009E-01   -0.29983E-02  1080   0.527E-01    0.605E+00
DAV:  17    -0.286267587825E+03    0.56075E-01   -0.79941E-02   980   0.701E-01    0.613E+00
DAV:  18    -0.286252554262E+03    0.15034E-01   -0.22554E-01  1140   0.983E-01    0.489E+00
DAV:  19    -0.286286805990E+03   -0.34252E-01   -0.55631E-02  1060   0.496E-01    0.472E+00
DAV:  20    -0.286160039035E+03    0.12677E+00   -0.56855E-02   940   0.516E-01    0.447E+00
DAV:  21    -0.286211567910E+03   -0.51529E-01   -0.16380E-02  1200   0.258E-01    0.463E+00
DAV:  22    -0.286121432023E+03    0.90136E-01   -0.18067E-01   980   0.809E-01    0.403E+00
DAV:  23    -0.286207233269E+03   -0.85801E-01   -0.66850E-02  1100   0.633E-01    0.376E+00
DAV:  24    -0.286611624342E+03   -0.40439E+00   -0.34527E-01   840   0.105E+00    0.392E+00
DAV:  25    -0.286812646849E+03   -0.20102E+00   -0.12228E-01  1200   0.691E-01    0.424E+00
DAV:  26    -0.286831279818E+03   -0.18633E-01   -0.11242E-02  1200   0.285E-01    0.428E+00
DAV:  27    -0.286857571421E+03   -0.26292E-01   -0.83624E-03  1020   0.194E-01    0.449E+00
DAV:  28    -0.286852424926E+03    0.51465E-02   -0.12091E-02  1000   0.269E-01    0.420E+00
DAV:  29    -0.287032943837E+03   -0.18052E+00   -0.73124E-02   920   0.654E-01    0.483E+00
DAV:  30    -0.287024977123E+03    0.79667E-02   -0.11832E-02  1180   0.366E-01
 -----------------------------------------------------------------------------
|                                                                             |
|           W    W    AA    RRRRR   N    N  II  N    N   GGGG   !!!           |
|           W    W   A  A   R    R  NN   N  II  NN   N  G    G  !!!           |
|           W    W  A    A  R    R  N N  N  II  N N  N  G       !!!           |
|           W WW W  AAAAAA  RRRRR   N  N N  II  N  N N  G  GGG   !            |
|           WW  WW  A    A  R   R   N   NN  II  N   NN  G    G                |
|           W    W  A    A  R    R  N    N  II  N    N   GGGG   !!!           |
|                                                                             |
|     The electronic self-consistency was not achieved in the given           |
|     number of steps (NELM). The forces and other quantities evaluated       |
|     might not be reliable so examine the results carefully. If you find     |
|     spurious results, we suggest increasing NELM, if you were close to      |
|     convergence or switching to a different ALGO or adjusting the           |
|     density mixing parameters otherwise.                                    |
|                                                                             |
 -----------------------------------------------------------------------------

   3 F= -.28702498E+03 E0= -.28683796E+03  d E =0.130433E+01  mag=     8.3915
 curvature:  -0.42 expect dE=-0.181E+01 dE for cont linesearch -0.160E-01
 trial: gam= 1.59779 g(F)=  0.430E+01 g(S)=  0.000E+00 ort =-0.331E+00 (trialstep = 0.264E+00)
 search vector abs. value=  0.106E+02
 bond charge predicted
       N       E                     dE             d eps       ncg     rms          rms(c)
DAV:   1    -0.287081788241E+03   -0.48844E-01   -0.55839E+01   820   0.283E+01    0.536E+00
DAV:   2    -0.288111173017E+03   -0.10294E+01   -0.15777E+01  1120   0.104E+01    0.181E+01
DAV:   3    -0.286939838954E+03    0.11713E+01   -0.82538E+00  1020   0.588E+00    0.524E+00
DAV:   4    -0.288075915189E+03   -0.11361E+01   -0.97551E+00   880   0.490E+00    0.179E+01
DAV:   5    -0.287462156869E+03    0.61376E+00   -0.36825E+00  1040   0.367E+00    0.137E+01
DAV:   6    -0.287480917422E+03   -0.18761E-01   -0.87435E-02  1220   0.877E-01    0.138E+01
DAV:   7    -0.287239019272E+03    0.24190E+00   -0.36527E-01  1000   0.125E+00    0.108E+01
DAV:   8    -0.287254733440E+03   -0.15714E-01   -0.20793E-01  1000   0.102E+00    0.104E+01
DAV:   9    -0.287165760777E+03    0.88973E-01   -0.10560E-01  1120   0.728E-01    0.958E+00
DAV:  10    -0.287091596826E+03    0.74164E-01   -0.12922E-01   980   0.941E-01    0.939E+00
DAV:  11    -0.287116209983E+03   -0.24613E-01   -0.50306E-01   960   0.143E+00    0.948E+00
DAV:  12    -0.286996772795E+03    0.11944E+00   -0.21098E-01   940   0.123E+00    0.786E+00
DAV:  13    -0.287022690766E+03   -0.25918E-01   -0.49853E-02  1260   0.640E-01    0.708E+00
DAV:  14    -0.286933164184E+03    0.89527E-01   -0.13476E-02   980   0.325E-01    0.691E+00
DAV:  15    -0.286753156531E+03    0.18001E+00   -0.17686E-01   940   0.724E-01    0.611E+00
DAV:  16    -0.286797144206E+03   -0.43988E-01   -0.37092E-01  1120   0.129E+00    0.447E+00
DAV:  17    -0.286833391330E+03   -0.36247E-01   -0.58643E-02  1100   0.561E-01    0.476E+00
DAV:  18    -0.286854160191E+03   -0.20769E-01   -0.15361E-02  1080   0.280E-01    0.452E+00
DAV:  19    -0.287095370326E+03   -0.24121E+00   -0.66437E-02   860   0.572E-01    0.462E+00
DAV:  20    -0.287367143146E+03   -0.27177E+00   -0.25807E-01   880   0.959E-01    0.349E+00
DAV:  21    -0.287796315544E+03   -0.42917E+00   -0.16209E-01   940   0.862E-01    0.263E+00
DAV:  22    -0.287998899644E+03   -0.20258E+00   -0.10438E-01  1080   0.579E-01    0.253E+00
DAV:  23    -0.288026202446E+03   -0.27303E-01   -0.20836E-02  1280   0.331E-01    0.247E+00
DAV:  24    -0.288030456469E+03   -0.42540E-02   -0.13785E-03  1020   0.115E-01    0.248E+00
DAV:  25    -0.288030128117E+03    0.32835E-03   -0.18817E-04   720   0.471E-02    0.248E+00
DAV:  26    -0.288039927895E+03   -0.97998E-02   -0.69027E-04   660   0.635E-02    0.251E+00
DAV:  27    -0.288082018778E+03   -0.42091E-01   -0.99180E-03  1060   0.194E-01    0.253E+00
DAV:  28    -0.288174906270E+03   -0.92887E-01   -0.52804E-02   820   0.401E-01    0.249E+00
DAV:  29    -0.288178672118E+03   -0.37658E-02   -0.60921E-03  1280   0.204E-01    0.247E+00
DAV:  30    -0.288175962373E+03    0.27097E-02   -0.42097E-04   720   0.631E-02
 -----------------------------------------------------------------------------
|                                                                             |
|           W    W    AA    RRRRR   N    N  II  N    N   GGGG   !!!           |
|           W    W   A  A   R    R  NN   N  II  NN   N  G    G  !!!           |
|           W    W  A    A  R    R  N N  N  II  N N  N  G       !!!           |
|           W WW W  AAAAAA  RRRRR   N  N N  II  N  N N  G  GGG   !            |
|           WW  WW  A    A  R   R   N   NN  II  N   NN  G    G                |
|           W    W  A    A  R    R  N    N  II  N    N   GGGG   !!!           |
|                                                                             |
|     The electronic self-consistency was not achieved in the given           |
|     number of steps (NELM). The forces and other quantities evaluated       |
|     might not be reliable so examine the results carefully. If you find     |
|     spurious results, we suggest increasing NELM, if you were close to      |
|     convergence or switching to a different ALGO or adjusting the           |
|     density mixing parameters otherwise.                                    |
|                                                                             |
 -----------------------------------------------------------------------------

   4 F= -.28817596E+03 E0= -.28800254E+03  d E =-.115099E+01  mag=     7.8382
 trial-energy change:   -1.150985  1 .order   -0.792531   -0.994282   -0.590780
 step:   0.6501(harm=  0.6501)  dis= 0.11094  next Energy=  -288.249998 (dE=-0.123E+01)
 bond charge predicted
       N       E                     dE             d eps       ncg     rms          rms(c)
DAV:   1    -0.286268208740E+03    0.19105E+01   -0.12065E+02   820   0.409E+01    0.776E+00
DAV:   2    -0.302151946654E+03   -0.15884E+02   -0.10239E+02  1200   0.214E+01    0.624E+01
DAV:   3    -0.288769901805E+03    0.13382E+02   -0.94348E+01  1100   0.161E+01    0.201E+01
DAV:   4    -0.289614487539E+03   -0.84459E+00   -0.27192E+01  1140   0.911E+00    0.208E+01
DAV:   5    -0.287742218572E+03    0.18723E+01   -0.59973E+00  1120   0.584E+00    0.826E+00
DAV:   6    -0.287648094661E+03    0.94124E-01   -0.14577E+00  1020   0.236E+00    0.849E+00
DAV:   7    -0.287542614645E+03    0.10548E+00   -0.20708E+00   960   0.214E+00    0.996E+00
DAV:   8    -0.287567377105E+03   -0.24762E-01   -0.71712E-02  1180   0.752E-01    0.100E+01
DAV:   9    -0.287834653279E+03   -0.26728E+00   -0.23897E+00   860   0.242E+00    0.110E+01
DAV:  10    -0.287957639501E+03   -0.12299E+00   -0.41297E-01  1180   0.141E+00    0.107E+01
DAV:  11    -0.287994750035E+03   -0.37111E-01   -0.38915E-02  1080   0.564E-01    0.106E+01
DAV:  12    -0.287886068672E+03    0.10868E+00   -0.31912E-01   940   0.112E+00    0.900E+00
DAV:  13    -0.288057424179E+03   -0.17136E+00   -0.19155E-01   980   0.133E+00    0.968E+00
DAV:  14    -0.288247028083E+03   -0.18960E+00   -0.12913E-01  1020   0.870E-01    0.104E+01
DAV:  15    -0.288174916433E+03    0.72112E-01   -0.23040E-02  1080   0.404E-01    0.101E+01
DAV:  16    -0.288052605591E+03    0.12231E+00   -0.98367E-01   920   0.198E+00    0.103E+01
DAV:  17    -0.288131071568E+03   -0.78466E-01   -0.11496E-01  1160   0.906E-01    0.107E+01
DAV:  18    -0.288078235308E+03    0.52836E-01   -0.34030E-02  1220   0.511E-01    0.106E+01
DAV:  19    -0.287697370668E+03    0.38086E+00   -0.55029E-01   900   0.113E+00    0.772E+00
DAV:  20    -0.287588789525E+03    0.10858E+00   -0.70875E-01   940   0.142E+00    0.791E+00
DAV:  21    -0.287631768268E+03   -0.42979E-01   -0.24848E-01  1180   0.115E+00    0.885E+00
DAV:  22    -0.287538657757E+03    0.93111E-01   -0.27789E-02  1200   0.525E-01    0.860E+00
DAV:  23    -0.287375614381E+03    0.16304E+00   -0.80106E-02   940   0.540E-01    0.861E+00
DAV:  24    -0.287377179895E+03   -0.15655E-02   -0.72355E-03  1280   0.265E-01    0.861E+00
DAV:  25    -0.287392131519E+03   -0.14952E-01   -0.12361E-03   940   0.103E-01    0.866E+00
DAV:  26    -0.287410883216E+03   -0.18752E-01   -0.25764E-03   920   0.117E-01    0.855E+00
DAV:  27    -0.287725843898E+03   -0.31496E+00   -0.85077E-01   800   0.109E+00    0.786E+00
DAV:  28    -0.287986229679E+03   -0.26039E+00   -0.40349E-01  1040   0.122E+00    0.637E+00
DAV:  29    -0.288121908209E+03   -0.13568E+00   -0.46901E-01  1000   0.123E+00    0.529E+00
DAV:  30    -0.288245770431E+03   -0.12386E+00   -0.83822E-02  1080   0.663E-01
 -----------------------------------------------------------------------------
|                                                                             |
|           W    W    AA    RRRRR   N    N  II  N    N   GGGG   !!!           |
|           W    W   A  A   R    R  NN   N  II  NN   N  G    G  !!!           |
|           W    W  A    A  R    R  N N  N  II  N N  N  G       !!!           |
|           W WW W  AAAAAA  RRRRR   N  N N  II  N  N N  G  GGG   !            |
|           WW  WW  A    A  R   R   N   NN  II  N   NN  G    G                |
|           W    W  A    A  R    R  N    N  II  N    N   GGGG   !!!           |
|                                                                             |
|     The electronic self-consistency was not achieved in the given           |
|     number of steps (NELM). The forces and other quantities evaluated       |
|     might not be reliable so examine the results carefully. If you find     |
|     spurious results, we suggest increasing NELM, if you were close to      |
|     convergence or switching to a different ALGO or adjusting the           |
|     density mixing parameters otherwise.                                    |
|                                                                             |
 -----------------------------------------------------------------------------

   5 F= -.28824577E+03 E0= -.28808786E+03  d E =-.122079E+01  mag=     7.4570
 curvature:  -0.92 expect dE=-0.420E+01 dE for cont linesearch -0.515E+00
 ZBRENT: interpolating
 opt :   0.4485  next Energy=  -288.382767 (dE=-0.136E+01)
