unknown system                          
           1
     5.536700    0.000000    0.000000
     0.000000    5.747300    0.000000
     0.000000    0.000000   29.090393
   Cr   La   O    H 
     8     6    21     1
Direct configuration=     1
   0.00000000  0.50000000  0.00343756
   0.50000000  0.00000000  0.00343756
   0.50000000  0.00000000  0.13566163
   0.00000000  0.50000000  0.13566163
   0.99986929  0.49938438  0.26937126
   0.50013071  0.99938438  0.26937126
   0.48939587  0.00315503  0.40006453
   0.01060413  0.50315503  0.40006453
   0.50780000  0.54900000  0.06954959
   0.99220000  0.04900000  0.06954959
   0.49220000  0.45100000  0.20177366
   0.00780000  0.95100000  0.20177366
   0.50957389  0.54416646  0.33581737
   0.99042611  0.04416646  0.33581737
   0.77440000  0.80660000  0.01359237
   0.72560000  0.30660000  0.01359237
   0.42550000  0.98740000  0.06954959
   0.07450000  0.48740000  0.06954959
   0.72560000  0.30660000  0.12550682
   0.77440000  0.80660000  0.12550682
   0.22560000  0.19340000  0.14581644
   0.27440000  0.69340000  0.14581644
   0.57450000  0.01260000  0.20177366
   0.92550000  0.51260000  0.20177366
   0.28870533  0.69634117  0.25614362
   0.21129467  0.19634117  0.25614362
   0.79204805  0.80781865  0.27752619
   0.70795195  0.30781865  0.27752619
   0.42984338  0.00357119  0.33324504
   0.07015662  0.50357119  0.33324504
   0.71908670  0.30128723  0.38774270
   0.78091330  0.80128723  0.38774270
   0.21339458  0.19228727  0.40834875
   0.28660542  0.69228727  0.40834875
   0.00000000  0.49352618  0.47022484
   0.00000000  0.55179035  0.50185126
Direct configuration=     2
   0.00000000  0.50000000  0.00343756
   0.50000000  0.00000000  0.00343756
   0.50000000  0.00000000  0.13566163
   0.00000000  0.50000000  0.13566163
   0.99976231  0.50128921  0.26900232
   0.50063862  0.00098301  0.26896938
   0.48304125  0.00606020  0.39915681
   0.01371592  0.50610271  0.40272838
   0.50780000  0.54900000  0.06954959
   0.99220000  0.04900000  0.06954959
   0.49220000  0.45100000  0.20177366
   0.00780000  0.95100000  0.20177366
   0.51272040  0.54385640  0.33542082
   0.98720153  0.04395157  0.33534710
   0.77440000  0.80660000  0.01359237
   0.72560000  0.30660000  0.01359237
   0.42550000  0.98740000  0.06954959
   0.07450000  0.48740000  0.06954959
   0.72560000  0.30660000  0.12550682
   0.77440000  0.80660000  0.12550682
   0.22560000  0.19340000  0.14581644
   0.27440000  0.69340000  0.14581644
   0.57450000  0.01260000  0.20177366
   0.92550000  0.51260000  0.20177366
   0.28264162  0.69884150  0.25775064
   0.21756334  0.19883008  0.25776164
   0.79070616  0.81165606  0.27786110
   0.70919475  0.31156110  0.27787515
   0.43033241  0.99234548  0.33401168
   0.06963782  0.49218504  0.33390479
   0.71554941  0.29801218  0.38838777
   0.78354175  0.79921638  0.38847746
   0.21430721  0.18249202  0.40992610
   0.29063647  0.68655210  0.40976370
   0.99809086  0.50141085  0.46967050
   0.00038297  0.55714286  0.50225549
Direct configuration=     3
   0.00000000  0.50000000  0.00343756
   0.50000000  0.00000000  0.00343756
   0.50000000  0.00000000  0.13566163
   0.00000000  0.50000000  0.13566163
   0.99977912  0.50098994  0.26906028
   0.50055882  0.00073184  0.26903252
   0.48403965  0.00560376  0.39929943
   0.01322701  0.50563959  0.40230986
   0.50780000  0.54900000  0.06954959
   0.99220000  0.04900000  0.06954959
   0.49220000  0.45100000  0.20177366
   0.00780000  0.95100000  0.20177366
   0.51222604  0.54390511  0.33548313
   0.98770815  0.04398534  0.33542099
   0.77440000  0.80660000  0.01359237
   0.72560000  0.30660000  0.01359237
   0.42550000  0.98740000  0.06954959
   0.07450000  0.48740000  0.06954959
   0.72560000  0.30660000  0.12550682
   0.77440000  0.80660000  0.12550682
   0.22560000  0.19340000  0.14581644
   0.27440000  0.69340000  0.14581644
   0.57450000  0.01260000  0.20177366
   0.92550000  0.51260000  0.20177366
   0.28359431  0.69844866  0.25749816
   0.21657845  0.19843904  0.25750742
   0.79091698  0.81105316  0.27780848
   0.70899949  0.31097311  0.27782033
   0.43025558  0.99410919  0.33389123
   0.06971933  0.49397396  0.33380114
   0.71610516  0.29852673  0.38828642
   0.78312878  0.79954174  0.38836202
   0.21416382  0.18403099  0.40967827
   0.29000314  0.68745317  0.40954139
   0.99839081  0.50017206  0.46975760
   0.00032280  0.55630191  0.50219198
Direct configuration=     4
   0.00000000  0.50000000  0.00343756
   0.50000000  0.00000000  0.00343756
   0.50000000  0.00000000  0.13566163
   0.00000000  0.50000000  0.13566163
   0.99988162  0.50199429  0.26908170
   0.50084746  0.00162557  0.26901844
   0.48051206  0.00714989  0.39881274
   0.01494419  0.50807770  0.40385744
   0.50780000  0.54900000  0.06954959
   0.99220000  0.04900000  0.06954959
   0.49220000  0.45100000  0.20177366
   0.00780000  0.95100000  0.20177366
   0.51363230  0.54383560  0.33556862
   0.98629396  0.04390968  0.33547069
   0.77440000  0.80660000  0.01359237
   0.72560000  0.30660000  0.01359237
   0.42550000  0.98740000  0.06954959
   0.07450000  0.48740000  0.06954959
   0.72560000  0.30660000  0.12550682
   0.77440000  0.80660000  0.12550682
   0.22560000  0.19340000  0.14581644
   0.27440000  0.69340000  0.14581644
   0.57450000  0.01260000  0.20177366
   0.92550000  0.51260000  0.20177366
   0.28293123  0.69879920  0.25764401
   0.21726272  0.19876262  0.25768118
   0.78905998  0.81399103  0.27805608
   0.71108400  0.31388616  0.27805130
   0.42825657  0.99210056  0.33371008
   0.07189475  0.49156423  0.33354824
   0.71437727  0.29309111  0.38885344
   0.78480593  0.79684618  0.38920365
   0.21575393  0.17758710  0.41036235
   0.28973512  0.68227167  0.40995636
   0.99655760  0.50324153  0.46978226
   0.00061673  0.55945760  0.50218295
Direct configuration=     5
   0.00000000  0.50000000  0.00343756
   0.50000000  0.00000000  0.00343756
   0.50000000  0.00000000  0.13566163
   0.00000000  0.50000000  0.13566163
   0.00003170  0.50346480  0.26911305
   0.50127007  0.00293410  0.26899784
   0.47534720  0.00941364  0.39810016
   0.01745838  0.51164742  0.40612332
   0.50780000  0.54900000  0.06954959
   0.99220000  0.04900000  0.06954959
   0.49220000  0.45100000  0.20177366
   0.00780000  0.95100000  0.20177366
   0.51569126  0.54373383  0.33569380
   0.98422339  0.04379891  0.33554345
   0.77440000  0.80660000  0.01359237
   0.72560000  0.30660000  0.01359237
   0.42550000  0.98740000  0.06954959
   0.07450000  0.48740000  0.06954959
   0.72560000  0.30660000  0.12550682
   0.77440000  0.80660000  0.12550682
   0.22560000  0.19340000  0.14581644
   0.27440000  0.69340000  0.14581644
   0.57450000  0.01260000  0.20177366
   0.92550000  0.51260000  0.20177366
   0.28196040  0.69931242  0.25785755
   0.21826459  0.19923638  0.25793559
   0.78634109  0.81829248  0.27841860
   0.71413600  0.31815125  0.27838947
   0.42532976  0.98915967  0.33344485
   0.07507986  0.48803608  0.33317796
   0.71184741  0.28513265  0.38968364
   0.78726149  0.79289953  0.39043591
   0.21808206  0.16815240  0.41136394
   0.28934270  0.67468526  0.41056392
   0.99387355  0.50773564  0.46981837
   0.00104708  0.56407796  0.50216974
