66
Lattice="11.033086113260774 5.600493888326504e-08 2.5686178914223706e-08 5.516543105132088 9.554933067924482 1.9872236184885125e-07 0.0 0.0 37.15231387033118" Properties=species:S:1:pos:R:3:tags:I:1:initial_magmoms:R:1:forces:R:3 energy=-380.00762939453125 free_energy=-380.00762939453125 stress="0.009324015266902543 -2.251375314496371e-09 1.4928680803527559e-09 -2.251375314496371e-09 0.009324004106214513 -2.15093870862365e-09 1.4928680803527559e-09 -2.15093870862365e-09 0.00110440476787245" pbc="T T T"
Pt      -0.00000001       0.00000000       0.00000000        0       0.00000000      -0.00000142      -0.00000044       0.14646849
Pt       2.75827155       0.00000002       0.00000007        0       0.00000000       0.00070805      -0.00261237       0.13248745
Pt       5.51654309       0.00000006       0.00000007        0       0.00000000       0.00000335      -0.00068325       0.13351387
Pt       8.27481455       0.00000002       0.00000007        0       0.00000000      -0.00070688      -0.00261447       0.13249150
Pt       1.37913578       2.38873328       0.00000009        0       0.00000000      -0.00190963       0.00191614       0.13248932
Pt       4.13740732       2.38873326       0.00000010        0       0.00000000      -0.00033793      -0.00019501       0.13114902
Pt       6.89567885       2.38873330       0.00000010        0       0.00000000       0.00034024      -0.00019441       0.13114744
Pt       9.65395039       2.38873333       0.00000011        0       0.00000000       0.00190393       0.00191498       0.13248846
Pt       2.75827157       4.77746655       0.00000018        0       0.00000000      -0.00059027       0.00034199       0.13351119
Pt       5.51654311       4.77746655       0.00000018        0       0.00000000       0.00000056       0.00039040       0.13114795
Pt       8.27481459       4.77746656       0.00000016        0       0.00000000       0.00059140       0.00033917       0.13351315
Pt      11.03308612       4.77746666       0.00000025        0       0.00000000       0.00000237       0.00493936       0.12384096
Pt       4.13740734       7.16619989       0.00000032        0       0.00000000      -0.00261307       0.00069441       0.13249063
Pt       6.89567883       7.16619981       0.00000025        0       0.00000000       0.00261314       0.00069554       0.13248894
Pt       9.65395036       7.16619988       0.00000022        0       0.00000000       0.00427569      -0.00246844       0.12384024
Pt      12.41222192       7.16619985       0.00000023        0       0.00000000      -0.00427703      -0.00246647       0.12384245
Pt       1.37913581       0.79624445       2.38855938        1       0.00000000      -0.03547536      -0.02047885      -0.08375178
Pt       4.13740731       0.79624445       2.38855951        1       0.00000000      -0.00206605      -0.00110276      -0.15930213
Pt       6.89567888       0.79624443       2.38855941        1       0.00000000       0.00206502      -0.00110367      -0.15930061
Pt       9.65395033       0.79624446       2.38855954        1       0.00000000       0.03547228      -0.02048102      -0.08375629
Pt       2.75827161       3.18497767       2.38855947        1       0.00000000      -0.00199052      -0.00123904      -0.15929826
Pt       5.51654314       3.18497767       2.38855952        1       0.00000000       0.00000201      -0.00000126      -0.14558709
Pt       8.27481457       3.18497770       2.38855940        1       0.00000000       0.00198893      -0.00123740      -0.15929928
Pt      11.03308614       3.18497759       2.38855939        1       0.00000000       0.00000110      -0.02244820      -0.14342763
Pt       4.13740736       5.57371086       2.38855937        1       0.00000000       0.00007678       0.00234393      -0.15929751
Pt       6.89567888       5.57371105       2.38855956        1       0.00000000      -0.00007551       0.00234104      -0.15929911
Pt       9.65395045       5.57371094       2.38855956        1       0.00000000      -0.00087955      -0.00050387      -0.14420804
Pt      12.41222194       5.57371108       2.38855958        1       0.00000000       0.00087582      -0.00050312      -0.14420913
Pt       5.51654310       7.96244423       2.38855960        1       0.00000000       0.00000051       0.04095940      -0.08375683
Pt       8.27481475       7.96244428       2.38855962        1       0.00000000      -0.01944359       0.01122138      -0.14343120
Pt      11.03308616       7.96244430       2.38855961        1       0.00000000       0.00000416       0.00101149      -0.14420936
Pt      13.79135772       7.96244428       2.38855965        1       0.00000000       0.01944049       0.01122667      -0.14343348
Pt      -0.00000005       1.57811431       4.75736454        2       0.00000000       0.00000400       0.00342894       0.00203741
Pt       2.75983863       1.59339369       4.72683084        2       0.00000000      -0.00107450      -0.00060975       0.00151670
Pt       5.51654310       1.59193470       4.72950412        2       0.00000000       0.00000321      -0.00053501       0.00006883
Pt       8.27324770       1.59339370       4.72683098        2       0.00000000       0.00106856      -0.00061325       0.00151590
Pt       1.37686710       3.97901685       4.72730143        2       0.00000000      -0.00016907      -0.00194327      -0.00009878
Pt       4.13692722       3.98149915       4.72950438        2       0.00000000      -0.00046028       0.00026526       0.00006893
Pt       6.89615866       3.98149921       4.72950441        2       0.00000000       0.00045726       0.00026221       0.00006840
Pt       9.65621820       3.97901695       4.72730183        2       0.00000000       0.00017514      -0.00194225      -0.00010206
Pt       2.75904757       6.37302304       4.72730166        2       0.00000000       0.00159500       0.00111203      -0.00009792
Pt       5.51654316       6.36814558       4.72683077        2       0.00000000      -0.00000472       0.00123977       0.00151597
Pt       8.27403794       6.37302254       4.72730186        2       0.00000000      -0.00159036       0.00112179      -0.00010432
Pt      11.03308598       6.36995550       4.72849804        2       0.00000000      -0.00000087       0.00000458       0.00092170
Pt       4.14985715       8.76587672       4.75736504        2       0.00000000      -0.00297203      -0.00171769       0.00203294
Pt       6.88322898       8.76587684       4.75736455        2       0.00000000       0.00297250      -0.00171642       0.00203317
Pt       9.65090516       8.75782657       4.72730215        2       0.00000000      -0.00175611       0.00081751      -0.00009900
Pt      12.41526694       8.75782655       4.72730181        2       0.00000000       0.00175373       0.00082168      -0.00009881
Pt       0.00000035       0.00000048       7.23644408        3       0.00000000      -0.00000076       0.00000115      -0.00508118
Pt       2.77346885       0.00206939       7.07860918        3       0.00000000       0.00229677      -0.00079718       0.00430593
Pt       5.51654274       0.00005835       7.08591929        3       0.00000000      -0.00000160       0.00042038      -0.00088608
Pt       8.25961712       0.00206944       7.07860919        3       0.00000000      -0.00229524      -0.00079515       0.00430524
Pt       1.38852597       2.40086028       7.07860984        3       0.00000000       0.00045988       0.00238803       0.00429770
Pt       4.13888204       2.38958414       7.08743698        3       0.00000000      -0.00080367      -0.00045691       0.00011170
Pt       6.89420395       2.38958432       7.08743684        3       0.00000000       0.00080353      -0.00046123       0.00008202
Pt       9.64456010       2.40086035       7.07860943        3       0.00000000      -0.00045941       0.00238714       0.00430277
Pt       2.75832232       4.77743729       7.08591907        3       0.00000000       0.00036597      -0.00021105      -0.00082010
Pt       5.51654307       4.77576479       7.08743729        3       0.00000000       0.00000051       0.00092180       0.00008062
Pt       8.27476423       4.77743789       7.08591899        3       0.00000000      -0.00036872      -0.00021315      -0.00081545
Pt      11.03308611       4.77904873       7.08593037        3       0.00000000       0.00000282       0.00046598       0.00057200
Pt       4.13160054       7.15200438       7.07860913        3       0.00000000      -0.00183789      -0.00159257       0.00430498
Pt       6.90148551       7.15200426       7.07860905        3       0.00000000       0.00183843      -0.00159157       0.00430390
Pt       9.65532024       7.16540850       7.08593040        3       0.00000000       0.00040709      -0.00023222       0.00057036
Pt      12.41085170       7.16540854       7.08593035        3       0.00000000      -0.00040735      -0.00023188       0.00060058
O        0.00000009      -0.00000013       9.53535450        0       0.00000000      -0.00000070       0.00000052       0.04967618
O       -0.00000021      -0.00000013      10.78653440        0       0.00000000      -0.00000012      -0.00000002       0.02756692
