unknown system                          
   1.00000000000000     
     4.192000    0.000000    0.000000
     0.000000    4.192000    0.000000
     0.000000    0.000000    4.192000
   Ba   Zr   O 
     1     1     3
Direct
  0.000000  0.000000  0.000000
  0.500000  0.500000  0.500000
  0.500000  0.500000  0.000000
  0.500000  0.000000  0.500000
  0.000000  0.500000  0.500000
 
   48   48   48
  5.5287      10.743      25.152      45.441      67.195      86.091      98.875      103.89      101.13      91.920    
  78.418      63.015      47.856      34.522      23.944      16.350      11.178      7.7544      5.5276      4.0974    
  3.1933      2.6378      2.3146      2.1489      2.0983      2.1489      2.3146      2.6378      3.1933      4.0974    
  5.5276      7.7544      11.178      16.350      23.944      34.522      47.856      63.015      78.418      91.920    
  101.13      103.89      98.875      86.091      67.195      45.441      25.152      10.743      10.743      15.746    
  29.562      48.983      69.740      87.653      99.578      103.93      100.71      91.260      77.678      62.315    
  47.267      34.074      23.638      16.159      11.066      7.6940      5.4991      4.0877      3.1940      2.6435    
  2.3221      2.1568      2.1062      2.1568      2.3221      2.6435      3.1940      4.0877      5.4991      7.6940    
  11.066      16.159      23.638      34.074      47.267      62.315      77.678      91.260      100.71      103.93    
  99.578      87.653      69.740      48.983      29.562      15.746      25.152      29.562      41.711      58.696    
  76.653      91.805      101.32      103.81      99.355      89.233      75.458      60.240      45.532      32.762    
  22.749      15.607      10.746      7.5248      5.4259      4.0742      3.2166      2.6871      2.3771      2.2172    
  2.1682      2.2172      2.3771      2.6871      3.2166      4.0742      5.4259      7.5248      10.746      15.607    
  22.749      32.762      45.532      60.240      75.458      89.233      99.355      103.81      101.32      91.805    
  76.653      58.696      41.711      29.562      45.441      48.983      58.696      72.121      85.990      97.117    
  103.14      102.96      96.744      85.732      71.774      56.867      42.755      30.688      21.363      14.753    
  10.257      7.2778      5.3352      4.0847      3.2931      2.8065      2.5234      2.3783      2.3340      2.3783    
  2.5234      2.8065      3.2931      4.0847      5.3352      7.2778      10.257      14.753      21.363      30.688    
  42.755      56.867      71.774      85.732      96.744      102.96      103.14      97.117      85.990      72.121    
  58.696      48.983      67.195      69.740      76.653      85.990      95.172      101.70      103.77      100.61    
  92.523      80.665      66.693      52.345      39.106      28.018      19.611      13.688      9.6628      6.9949    
  5.2556      4.1381      3.4342      3.0051      2.7582      2.6331      2.5952      2.6331      2.7582      3.0051    
  3.4342      4.1381      5.2556      6.9949      9.6628      13.688      19.611      28.018      39.106      52.345    
  66.693      80.665      92.523      100.61      103.77      101.70      95.172      85.990      76.653      69.740    
  86.091      87.653      91.805      97.117      101.70      103.76      102.05      96.133      86.439      74.043    
  60.380      46.906      34.830      24.971      17.653      12.519      9.0350      6.7263      5.2222      4.2584    
  3.6547      3.2898      3.0820      2.9778      2.9464      2.9778      3.0820      3.2898      3.6547      4.2584    
  5.2222      6.7263      9.0350      12.519      17.653      24.971      34.830      46.906      60.380      74.043    
  86.439      96.133      102.05      103.76      101.70      97.117      91.805      87.653      98.875      99.578    
  101.32      103.14      103.77      102.05      97.227      89.204      78.486      66.057      53.126      40.868    
  30.226      21.803      15.656      11.360      8.4528      6.5310      5.2856      4.4957      4.0093      3.7224    
  3.5639      3.4869      3.4641      3.4869      3.5639      3.7224      4.0093      4.4957      5.2856      6.5310    
  8.4528      11.360      15.656      21.803      30.226      40.868      53.126      66.057      78.486      89.204    
  97.227      102.05      103.77      103.14      101.32      99.578      103.89      103.93      103.81      102.96    
  100.61      96.133      89.204      79.958      68.964      57.094      45.341      34.619      25.633      18.748    
  13.774      10.318      7.9939      6.4736      5.5080      4.9179      4.5766      4.3942      4.3071      4.2717    
  4.2627      4.2717      4.3071      4.3942      4.5766      4.9179      5.5080      6.4736      7.9939      10.318    
  13.774      18.748      25.633      34.619      45.341      57.094      68.964      79.958      89.204      96.133    
  100.61      102.96      103.81      103.93      101.13      100.71      99.355      96.744      92.523      86.439    
  78.486      68.964      58.453      47.708      37.521      28.583      21.387      15.995      12.137      9.4864    
  7.7334      6.6231      5.9603      5.6009      5.4381      5.3916      5.4011      5.4240      5.4345      5.4240    
  5.4011      5.3916      5.4381      5.6009      5.9603      6.6231      7.7334      9.4864      12.137      15.995    
  21.387      28.583      37.521      47.708      58.453      68.964      78.486      86.439      92.523      96.744    
  99.355      100.71      91.920      91.260      89.233      85.732      80.665      74.043      66.057      57.094    
  47.708      38.533      30.183      23.167      17.709      13.680      10.844      8.9452      7.7496      7.0641    
  6.7375      6.6516      6.7120      6.8419      6.9801      7.0816      7.1186      7.0816      6.9801      6.8419    
  6.7120      6.6516      6.7375      7.0641      7.7496      8.9452      10.844      13.680      17.709      23.167    
  30.183      38.533      47.708      57.094      66.057      74.043      80.665      85.732      89.233      91.260    
  78.418      77.678      75.458      71.774      66.693      60.380      53.126      45.341      37.521      30.183    
  23.797      18.645      14.718      11.885      9.9643      8.7695      8.1314      7.9070      7.9767      8.2370    
  8.5964      8.9729      9.2967      9.5139      9.5902      9.5139      9.2967      8.9729      8.5964      8.2370    
  7.9767      7.9070      8.1314      8.7695      9.9643      11.885      14.718      18.645      23.797      30.183    
  37.521      45.341      53.126      60.380      66.693      71.774      75.458      77.678      63.015      62.315    
  60.240      56.867      52.345      46.906      40.868      34.619      28.583      23.167      18.645      15.085    
  12.451      10.647      9.5493      9.0325      8.9804      9.2866      9.8509      10.574      11.355      12.095    
  12.701      13.098      13.237      13.098      12.701      12.095      11.355      10.574      9.8509      9.2866    
  8.9804      9.0325      9.5493      10.647      12.451      15.085      18.645      23.167      28.583      34.619    
  40.868      46.906      52.345      56.867      60.240      62.315      47.856      47.267      45.532      42.755    
  39.106      34.830      30.226      25.633      21.387      17.709      14.718      12.451      10.888      9.9729    
  9.6375      9.8075      10.407      11.355      12.562      13.923      15.314      16.601      17.647      18.331    
  18.569      18.331      17.647      16.601      15.314      13.923      12.562      11.355      10.407      9.8075    
  9.6375      9.9729      10.888      12.451      14.718      17.709      21.387      25.633      30.226      34.830    
  39.106      42.755      45.532      47.267      34.522      34.074      32.762      30.688      28.018      24.971    
  21.803      18.748      15.995      13.680      11.885      10.647      9.9729      9.8510      10.259      11.166    
  12.530      14.294      16.375      18.656      20.976      23.133      24.901      26.065      26.472      26.065    
  24.901      23.133      20.976      18.656      16.375      14.294      12.530      11.166      10.259      9.8510    
  9.9729      10.647      11.885      13.680      15.995      18.748      21.803      24.971      28.018      30.688    
  32.762      34.074      23.944      23.638      22.749      21.363      19.611      17.653      15.656      13.774    
  12.137      10.844      9.9643      9.5493      9.6375      10.259      11.435      13.179      15.488      18.343    
  21.683      25.378      29.202      32.825      35.842      37.852      38.559      37.852      35.842      32.825    
  29.202      25.378      21.683      18.343      15.488      13.179      11.435      10.259      9.6375      9.5493    
  9.9643      10.844      12.137      13.774      15.656      17.653      19.611      21.363      22.749      23.638    
  16.350      16.159      15.607      14.753      13.688      12.519      11.360      10.318      9.4864      8.9452    
  8.7695      9.0325      9.8075      11.166      13.179      15.916      19.450      23.836      29.068      35.011    
  41.326      47.441      52.620      56.108      57.341      56.108      52.620      47.441      41.326      35.011    
  29.068      23.836      19.450      15.916      13.179      11.166      9.8075      9.0325      8.7695      8.9452    
  9.4864      10.318      11.360      12.519      13.688      14.753      15.607      16.159      11.178      11.066    
  10.746      10.257      9.6628      9.0350      8.4528      7.9939      7.7334      7.7496      8.1314      8.9804    
  10.407      12.530      15.488      19.450      24.620      31.198      39.295      48.770      59.085      69.249    
  77.946      83.847      85.945      83.847      77.946      69.249      59.085      48.770      39.295      31.198    
  24.620      19.450      15.488      12.530      10.407      8.9804      8.1314      7.7496      7.7334      7.9939    
  8.4528      9.0350      9.6628      10.257      10.746      11.066      7.7544      7.6940      7.5248      7.2778    
  6.9949      6.7263      6.5310      6.4736      6.6231      7.0641      7.9070      9.2866      11.355      14.294    
  18.343      23.836      31.198      40.881      53.177      67.925      84.237      100.71      115.37      125.63    
  129.33      125.63      115.37      100.71      84.237      67.925      53.177      40.881      31.198      23.836    
  18.343      14.294      11.355      9.2866      7.9070      7.0641      6.6231      6.4736      6.5310      6.7263    
  6.9949      7.2778      7.5248      7.6940      5.5276      5.4991      5.4259      5.3352      5.2556      5.2222    
  5.2856      5.5080      5.9603      6.7375      7.9767      9.8509      12.562      16.375      21.683      29.068    
  39.295      53.177      71.247      93.329      118.97      146.15      170.78      188.08      194.31      188.08    
  170.78      146.15      118.97      93.329      71.247      53.177      39.295      29.068      21.683      16.375    
  12.562      9.8509      7.9767      6.7375      5.9603      5.5080      5.2856      5.2222      5.2556      5.3352    
  5.4259      5.4991      4.0974      4.0877      4.0742      4.0847      4.1381      4.2584      4.4957      4.9179    
  5.6009      6.6516      8.2370      10.574      13.923      18.656      25.378      35.011      48.770      67.925    
  93.329      126.08      165.70      207.88      245.62      271.70      281.00      271.70      245.62      207.88    
  165.70      126.08      93.329      67.925      48.770      35.011      25.378      18.656      13.923      10.574    
  8.2370      6.6516      5.6009      4.9179      4.4957      4.2584      4.1381      4.0847      4.0742      4.0877    
  3.1933      3.1940      3.2166      3.2931      3.4342      3.6547      4.0093      4.5766      5.4381      6.7120    
  8.5964      11.355      15.314      20.976      29.202      41.326      59.085      84.237      118.97      165.70    
  222.27      281.23      332.45      366.90      378.98      366.90      332.45      281.23      222.27      165.70    
  118.97      84.237      59.085      41.326      29.202      20.976      15.314      11.355      8.5964      6.7120    
  5.4381      4.5766      4.0093      3.6547      3.4342      3.2931      3.2166      3.1940      2.6378      2.6435    
  2.6871      2.8065      3.0051      3.2898      3.7224      4.3942      5.3916      6.8419      8.9729      12.095    
  16.601      23.133      32.825      47.441      69.249      100.71      146.15      207.88      281.23      355.20    
  416.98      457.04      470.77      457.04      416.98      355.20      281.23      207.88      146.15      100.71    
  69.249      47.441      32.825      23.133      16.601      12.095      8.9729      6.8419      5.3916      4.3942    
  3.7224      3.2898      3.0051      2.8065      2.6871      2.6435      2.3146      2.3221      2.3771      2.5234    
  2.7582      3.0820      3.5639      4.3071      5.4011      6.9801      9.2967      12.701      17.647      24.901    
  35.842      52.620      77.946      115.37      170.78      245.62      332.45      416.98      484.65      526.73    
  540.76      526.73      484.65      416.98      332.45      245.62      170.78      115.37      77.946      52.620    
  35.842      24.901      17.647      12.701      9.2967      6.9801      5.4011      4.3071      3.5639      3.0820    
  2.7582      2.5234      2.3771      2.3221      2.1489      2.1568      2.2172      2.3783      2.6331      2.9778    
  3.4869      4.2717      5.4240      7.0816      9.5139      13.098      18.331      26.065      37.852      56.108    
  83.847      125.63      188.08      271.70      366.90      457.04      526.73      568.48      582.04      568.48    
  526.73      457.04      366.90      271.70      188.08      125.63      83.847      56.108      37.852      26.065    
  18.331      13.098      9.5139      7.0816      5.4240      4.2717      3.4869      2.9778      2.6331      2.3783    
  2.2172      2.1568      2.0983      2.1062      2.1682      2.3340      2.5952      2.9464      3.4641      4.2627    
  5.4345      7.1186      9.5902      13.237      18.569      26.472      38.559      57.341      85.945      129.33    
  194.31      281.00      378.98      470.77      540.76      582.04      595.30      582.04      540.76      470.77    
  378.98      281.00      194.31      129.33      85.945      57.341      38.559      26.472      18.569      13.237    
  9.5902      7.1186      5.4345      4.2627      3.4641      2.9464      2.5952      2.3340      2.1682      2.1062    
  2.1489      2.1568      2.2172      2.3783      2.6331      2.9778      3.4869      4.2717      5.4240      7.0816    
  9.5139      13.098      18.331      26.065      37.852      56.108      83.847      125.63      188.08      271.70    
  366.90      457.04      526.73      568.48      582.04      568.48      526.73      457.04      366.90      271.70    
  188.08      125.63      83.847      56.108      37.852      26.065      18.331      13.098      9.5139      7.0816    
  5.4240      4.2717      3.4869      2.9778      2.6331      2.3783      2.2172      2.1568      2.3146      2.3221    
  2.3771      2.5234      2.7582      3.0820      3.5639      4.3071      5.4011      6.9801      9.2967      12.701    
  17.647      24.901      35.842      52.620      77.946      115.37      170.78      245.62      332.45      416.98    
  484.65      526.73      540.76      526.73      484.65      416.98      332.45      245.62      170.78      115.37    
  77.946      52.620      35.842      24.901      17.647      12.701      9.2967      6.9801      5.4011      4.3071    
  3.5639      3.0820      2.7582      2.5234      2.3771      2.3221      2.6378      2.6435      2.6871      2.8065    
  3.0051      3.2898      3.7224      4.3942      5.3916      6.8419      8.9729      12.095      16.601      23.133    
  32.825      47.441      69.249      100.71      146.15      207.88      281.23      355.20      416.98      457.04    
  470.77      457.04      416.98      355.20      281.23      207.88      146.15      100.71      69.249      47.441    
  32.825      23.133      16.601      12.095      8.9729      6.8419      5.3916      4.3942      3.7224      3.2898    
  3.0051      2.8065      2.6871      2.6435      3.1933      3.1940      3.2166      3.2931      3.4342      3.6547    
  4.0093      4.5766      5.4381      6.7120      8.5964      11.355      15.314      20.976      29.202      41.326    
  59.085      84.237      118.97      165.70      222.27      281.23      332.45      366.90      378.98      366.90    
  332.45      281.23      222.27      165.70      118.97      84.237      59.085      41.326      29.202      20.976    
  15.314      11.355      8.5964      6.7120      5.4381      4.5766      4.0093      3.6547      3.4342      3.2931    
  3.2166      3.1940      4.0974      4.0877      4.0742      4.0847      4.1381      4.2584      4.4957      4.9179    
  5.6009      6.6516      8.2370      10.574      13.923      18.656      25.378      35.011      48.770      67.925    
  93.329      126.08      165.70      207.88      245.62      271.70      281.00      271.70      245.62      207.88    
  165.70      126.08      93.329      67.925      48.770      35.011      25.378      18.656      13.923      10.574    
  8.2370      6.6516      5.6009      4.9179      4.4957      4.2584      4.1381      4.0847      4.0742      4.0877    
  5.5276      5.4991      5.4259      5.3352      5.2556      5.2222      5.2856      5.5080      5.9603      6.7375    
  7.9767      9.8509      12.562      16.375      21.683      29.068      39.295      53.177      71.247      93.329    
  118.97      146.15      170.78      188.08      194.31      188.08      170.78      146.15      118.97      93.329    
  71.247      53.177      39.295      29.068      21.683      16.375      12.562      9.8509      7.9767      6.7375    
  5.9603      5.5080      5.2856      5.2222      5.2556      5.3352      5.4259      5.4991      7.7544      7.6940    
  7.5248      7.2778      6.9949      6.7263      6.5310      6.4736      6.6231      7.0641      7.9070      9.2866    
  11.355      14.294      18.343      23.836      31.198      40.881      53.177      67.925      84.237      100.71    
  115.37      125.63      129.33      125.63      115.37      100.71      84.237      67.925      53.177      40.881    
  31.198      23.836      18.343      14.294      11.355      9.2866      7.9070      7.0641      6.6231      6.4736    
  6.5310      6.7263      6.9949      7.2778      7.5248      7.6940      11.178      11.066      10.746      10.257    
  9.6628      9.0350      8.4528      7.9939      7.7334      7.7496      8.1314      8.9804      10.407      12.530    
  15.488      19.450      24.620      31.198      39.295      48.770      59.085      69.249      77.946      83.847    
  85.945      83.847      77.946      69.249      59.085      48.770      39.295      31.198      24.620      19.450    
  15.488      12.530      10.407      8.9804      8.1314      7.7496      7.7334      7.9939      8.4528      9.0350    
  9.6628      10.257      10.746      11.066      16.350      16.159      15.607      14.753      13.688      12.519    
  11.360      10.318      9.4864      8.9452      8.7695      9.0325      9.8075      11.166      13.179      15.916    
  19.450      23.836      29.068      35.011      41.326      47.441      52.620      56.108      57.341      56.108    
  52.620      47.441      41.326      35.011      29.068      23.836      19.450      15.916      13.179      11.166    
  9.8075      9.0325      8.7695      8.9452      9.4864      10.318      11.360      12.519      13.688      14.753    
  15.607      16.159      23.944      23.638      22.749      21.363      19.611      17.653      15.656      13.774    
  12.137      10.844      9.9643      9.5493      9.6375      10.259      11.435      13.179      15.488      18.343    
  21.683      25.378      29.202      32.825      35.842      37.852      38.559      37.852      35.842      32.825    
  29.202      25.378      21.683      18.343      15.488      13.179      11.435      10.259      9.6375      9.5493    
  9.9643      10.844      12.137      13.774      15.656      17.653      19.611      21.363      22.749      23.638    
  34.522      34.074      32.762      30.688      28.018      24.971      21.803      18.748      15.995      13.680    
  11.885      10.647      9.9729      9.8510      10.259      11.166      12.530      14.294      16.375      18.656    
  20.976      23.133      24.901      26.065      26.472      26.065      24.901      23.133      20.976      18.656    
  16.375      14.294      12.530      11.166      10.259      9.8510      9.9729      10.647      11.885      13.680    
  15.995      18.748      21.803      24.971      28.018      30.688      32.762      34.074      47.856      47.267    
  45.532      42.755      39.106      34.830      30.226      25.633      21.387      17.709      14.718      12.451    
  10.888      9.9729      9.6375      9.8075      10.407      11.355      12.562      13.923      15.314      16.601    
  17.647      18.331      18.569      18.331      17.647      16.601      15.314      13.923      12.562      11.355    
  10.407      9.8075      9.6375      9.9729      10.888      12.451      14.718      17.709      21.387      25.633    
  30.226      34.830      39.106      42.755      45.532      47.267      63.015      62.315      60.240      56.867    
  52.345      46.906      40.868      34.619      28.583      23.167      18.645      15.085      12.451      10.647    
  9.5493      9.0325      8.9804      9.2866      9.8509      10.574      11.355      12.095      12.701      13.098    
  13.237      13.098      12.701      12.095      11.355      10.574      9.8509      9.2866      8.9804      9.0325    
  9.5493      10.647      12.451      15.085      18.645      23.167      28.583      34.619      40.868      46.906    
  52.345      56.867      60.240      62.315      78.418      77.678      75.458      71.774      66.693      60.380    
  53.126      45.341      37.521      30.183      23.797      18.645      14.718      11.885      9.9643      8.7695    
  8.1314      7.9070      7.9767      8.2370      8.5964      8.9729      9.2967      9.5139      9.5902      9.5139    
  9.2967      8.9729      8.5964      8.2370      7.9767      7.9070      8.1314      8.7695      9.9643      11.885    
  14.718      18.645      23.797      30.183      37.521      45.341      53.126      60.380      66.693      71.774    
  75.458      77.678      91.920      91.260      89.233      85.732      80.665      74.043      66.057      57.094    
  47.708      38.533      30.183      23.167      17.709      13.680      10.844      8.9452      7.7496      7.0641    
  6.7375      6.6516      6.7120      6.8419      6.9801      7.0816      7.1186      7.0816      6.9801      6.8419    
  6.7120      6.6516      6.7375      7.0641      7.7496      8.9452      10.844      13.680      17.709      23.167    
  30.183      38.533      47.708      57.094      66.057      74.043      80.665      85.732      89.233      91.260    
  101.13      100.71      99.355      96.744      92.523      86.439      78.486      68.964      58.453      47.708    
  37.521      28.583      21.387      15.995      12.137      9.4864      7.7334      6.6231      5.9603      5.6009    
  5.4381      5.3916      5.4011      5.4240      5.4345      5.4240      5.4011      5.3916      5.4381      5.6009    
  5.9603      6.6231      7.7334      9.4864      12.137      15.995      21.387      28.583      37.521      47.708    
  58.453      68.964      78.486      86.439      92.523      96.744      99.355      100.71      103.89      103.93    
  103.81      102.96      100.61      96.133      89.204      79.958      68.964      57.094      45.341      34.619    
  25.633      18.748      13.774      10.318      7.9939      6.4736      5.5080      4.9179      4.5766      4.3942    
  4.3071      4.2717      4.2627      4.2717      4.3071      4.3942      4.5766      4.9179      5.5080      6.4736    
  7.9939      10.318      13.774      18.748      25.633      34.619      45.341      57.094      68.964      79.958    
  89.204      96.133      100.61      102.96      103.81      103.93      98.875      99.578      101.32      103.14    
  103.77      102.05      97.227      89.204      78.486      66.057      53.126      40.868      30.226      21.803    
  15.656      11.360      8.4528      6.5310      5.2856      4.4957      4.0093      3.7224      3.5639      3.4869    
  3.4641      3.4869      3.5639      3.7224      4.0093      4.4957      5.2856      6.5310      8.4528      11.360    
  15.656      21.803      30.226      40.868      53.126      66.057      78.486      89.204      97.227      102.05    
  103.77      103.14      101.32      99.578      86.091      87.653      91.805      97.117      101.70      103.76    
  102.05      96.133      86.439      74.043      60.380      46.906      34.830      24.971      17.653      12.519    
  9.0350      6.7263      5.2222      4.2584      3.6547      3.2898      3.0820      2.9778      2.9464      2.9778    
  3.0820      3.2898      3.6547      4.2584      5.2222      6.7263      9.0350      12.519      17.653      24.971    
  34.830      46.906      60.380      74.043      86.439      96.133      102.05      103.76      101.70      97.117    
  91.805      87.653      67.195      69.740      76.653      85.990      95.172      101.70      103.77      100.61    
  92.523      80.665      66.693      52.345      39.106      28.018      19.611      13.688      9.6628      6.9949    
  5.2556      4.1381      3.4342      3.0051      2.7582      2.6331      2.5952      2.6331      2.7582      3.0051    
  3.4342      4.1381      5.2556      6.9949      9.6628      13.688      19.611      28.018      39.106      52.345    
  66.693      80.665      92.523      100.61      103.77      101.70      95.172      85.990      76.653      69.740    
  45.441      48.983      58.696      72.121      85.990      97.117      103.14      102.96      96.744      85.732    
  71.774      56.867      42.755      30.688      21.363      14.753      10.257      7.2778      5.3352      4.0847    
  3.2931      2.8065      2.5234      2.3783      2.3340      2.3783      2.5234      2.8065      3.2931      4.0847    
  5.3352      7.2778      10.257      14.753      21.363      30.688      42.755      56.867      71.774      85.732    
  96.744      102.96      103.14      97.117      85.990      72.121      58.696      48.983      25.152      29.562    
  41.711      58.696      76.653      91.805      101.32      103.81      99.355      89.233      75.458      60.240    
  45.532      32.762      22.749      15.607      10.746      7.5248      5.4259      4.0742      3.2166      2.6871    
  2.3771      2.2172      2.1682      2.2172      2.3771      2.6871      3.2166      4.0742      5.4259      7.5248    
  10.746      15.607      22.749      32.762      45.532      60.240      75.458      89.233      99.355      103.81    
  101.32      91.805      76.653      58.696      41.711      29.562      10.743      15.746      29.562      48.983    
  69.740      87.653      99.578      103.93      100.71      91.260      77.678      62.315      47.267      34.074    
  23.638      16.159      11.066      7.6940      5.4991      4.0877      3.1940      2.6435      2.3221      2.1568    
  2.1062      2.1568      2.3221      2.6435      3.1940      4.0877      5.4991      7.6940      11.066      16.159    
  23.638      34.074      47.267      62.315      77.678      91.260      100.71      103.93      99.578      87.653    
  69.740      48.983      29.562      15.746      10.743      15.746      29.562      48.983      69.740      87.653    
  99.578      103.93      100.71      91.260      77.678      62.315      47.267      34.074      23.638      16.159    
  11.066      7.6940      5.4991      4.0877      3.1940      2.6435      2.3221      2.1568      2.1062      2.1568    
  2.3221      2.6435      3.1940      4.0877      5.4991      7.6940      11.066      16.159      23.638      34.074    
  47.267      62.315      77.678      91.260      100.71      103.93      99.578      87.653      69.740      48.983    
  29.562      15.746      15.746      20.545      33.787      52.369      72.162      89.123      100.22      103.93    
  100.28      90.591      76.937      61.619      46.683      33.630      23.336      15.971      10.956      7.6345    
  5.4711      4.0785      3.1952      2.6498      2.3304      2.1657      2.1151      2.1657      2.3304      2.6498    
  3.1952      4.0785      5.4711      7.6345      10.956      15.971      23.336      33.630      46.683      61.619    
  76.937      90.591      100.28      103.93      100.22      89.123      72.162      52.369      33.787      20.545    
  29.562      33.787      45.416      61.642      78.727      93.019      101.79      103.70      98.864      88.543    
  74.718      59.555      44.964      32.334      22.460      15.427      10.640      7.4676      5.3991      4.0657    
  3.2184      2.6942      2.3865      2.2273      2.1784      2.2273      2.3865      2.6942      3.2184      4.0657    
  5.3991      7.4676      10.640      15.427      22.460      32.334      44.964      59.555      74.718      88.543    