unknown system                          
   1.00000000000000     
     4.192000    0.000000    0.000000
     0.000000    4.192000    0.000000
     0.000000    0.000000    4.192000
   Ba   Zr   O 
     1     1     3
Direct
  0.000000  0.000000  0.000000
  0.500000  0.500000  0.500000
  0.500000  0.500000  0.000000
  0.500000  0.000000  0.500000
  0.000000  0.500000  0.500000
 
   48   48   48
 0.55286708692E+01 0.10742953441E+02 0.25152431062E+02 0.45440854504E+02 0.67194672955E+02
 0.86090913029E+02 0.98875285121E+02 0.10389035690E+03 0.10112825888E+03 0.91920227307E+02
 0.78417553535E+02 0.63015179946E+02 0.47856247741E+02 0.34522465917E+02 0.23944430574E+02
 0.16350383913E+02 0.11178283015E+02 0.77544481008E+01 0.55275879670E+01 0.40973716908E+01
 0.31932973921E+01 0.26378304868E+01 0.23146211219E+01 0.21489298562E+01 0.20983087608E+01
 0.21489298562E+01 0.23146211219E+01 0.26378304868E+01 0.31932973921E+01 0.40973716908E+01
 0.55275879670E+01 0.77544481008E+01 0.11178283015E+02 0.16350383913E+02 0.23944430574E+02
 0.34522465917E+02 0.47856247741E+02 0.63015179946E+02 0.78417553535E+02 0.91920227307E+02
 0.10112825888E+03 0.10389035690E+03 0.98875285121E+02 0.86090913029E+02 0.67194672955E+02
 0.45440854504E+02 0.25152431062E+02 0.10742953441E+02 0.10742953441E+02 0.15745970278E+02
 0.29562003986E+02 0.48983188835E+02 0.69740246061E+02 0.87652792674E+02 0.99578403715E+02
 0.10392714863E+03 0.10071458234E+03 0.91259744344E+02 0.77677688724E+02 0.62315246238E+02
 0.47266896596E+02 0.34073783397E+02 0.23638177689E+02 0.16159391519E+02 0.11066427665E+02
 0.76940109578E+01 0.54990810986E+01 0.40877462131E+01 0.31940199228E+01 0.26434974556E+01
 0.23221122549E+01 0.21568033838E+01 0.21061872847E+01 0.21568033838E+01 0.23221122549E+01
 0.26434974556E+01 0.31940199228E+01 0.40877462131E+01 0.54990810986E+01 0.76940109578E+01
 0.11066427665E+02 0.16159391519E+02 0.23638177689E+02 0.34073783397E+02 0.47266896596E+02
 0.62315246238E+02 0.77677688724E+02 0.91259744344E+02 0.10071458234E+03 0.10392714863E+03
 0.99578403715E+02 0.87652792674E+02 0.69740246061E+02 0.48983188835E+02 0.29562003986E+02
 0.15745970278E+02 0.25152431062E+02 0.29562003986E+02 0.41710999166E+02 0.58696004671E+02
 0.76653499035E+02 0.91804993096E+02 0.10132441503E+03 0.10381359691E+03 0.99355012760E+02
 0.89232830342E+02 0.75458108934E+02 0.60239590639E+02 0.45532379080E+02 0.32761841467E+02
 0.22749208926E+02 0.15607197235E+02 0.10745690850E+02 0.75247882255E+01 0.54259480101E+01
 0.40742459102E+01 0.32166326948E+01 0.26871007057E+01 0.23771002538E+01 0.22172062608E+01
 0.21681606779E+01 0.22172062608E+01 0.23771002538E+01 0.26871007057E+01 0.32166326948E+01
 0.40742459102E+01 0.54259480101E+01 0.75247882255E+01 0.10745690850E+02 0.15607197235E+02
 0.22749208926E+02 0.32761841467E+02 0.45532379080E+02 0.60239590639E+02 0.75458108934E+02
 0.89232830342E+02 0.99355012760E+02 0.10381359691E+03 0.10132441503E+03 0.91804993096E+02
 0.76653499035E+02 0.58696004671E+02 0.41710999166E+02 0.29562003986E+02 0.45440854504E+02
 0.48983188835E+02 0.58696004671E+02 0.72121238468E+02 0.85990396922E+02 0.97116883352E+02
 0.10314346021E+03 0.10295832012E+03 0.96744392239E+02 0.85732271982E+02 0.71773824209E+02
 0.56866852226E+02 0.42754675405E+02 0.30688070666E+02 0.21363284639E+02 0.14753259980E+02
 0.10257457905E+02 0.72778227311E+01 0.53352154016E+01 0.40846925249E+01 0.32930898665E+01
 0.28064935826E+01 0.25233934624E+01 0.23783220396E+01 0.23340162503E+01 0.23783220396E+01
 0.25233934624E+01 0.28064935826E+01 0.32930898665E+01 0.40846925249E+01 0.53352154016E+01
 0.72778227311E+01 0.10257457905E+02 0.14753259980E+02 0.21363284639E+02 0.30688070666E+02
 0.42754675405E+02 0.56866852226E+02 0.71773824209E+02 0.85732271982E+02 0.96744392239E+02
 0.10295832012E+03 0.10314346021E+03 0.97116883352E+02 0.85990396922E+02 0.72121238468E+02
 0.58696004671E+02 0.48983188835E+02 0.67194672955E+02 0.69740246061E+02 0.76653499035E+02
 0.85990396922E+02 0.95171882640E+02 0.10170136465E+03 0.10377254894E+03 0.10061267477E+03
 0.92522783882E+02 0.80664840782E+02 0.66692953073E+02 0.52345120201E+02 0.39106490186E+02
 0.28017637164E+02 0.19611447669E+02 0.13687591344E+02 0.96627536853E+01 0.69948664568E+01
 0.52556289098E+01 0.41381108083E+01 0.34341632766E+01 0.30050644046E+01 0.27581860552E+01
 0.26331209861E+01 0.25952155980E+01 0.26331209861E+01 0.27581860552E+01 0.30050644046E+01
 0.34341632766E+01 0.41381108083E+01 0.52556289098E+01 0.69948664568E+01 0.96627536853E+01
 0.13687591344E+02 0.19611447669E+02 0.28017637164E+02 0.39106490186E+02 0.52345120201E+02
 0.66692953073E+02 0.80664840782E+02 0.92522783882E+02 0.10061267477E+03 0.10377254894E+03
 0.10170136465E+03 0.95171882640E+02 0.85990396922E+02 0.76653499035E+02 0.69740246061E+02
 0.86090913029E+02 0.87652792674E+02 0.91804993096E+02 0.97116883352E+02 0.10170136465E+03
 0.10375924633E+03 0.10204529340E+03 0.96132830228E+02 0.86438844497E+02 0.74043100301E+02
 0.60380390253E+02 0.46906218384E+02 0.34829809037E+02 0.24971008716E+02 0.17653128405E+02
 0.12518770028E+02 0.90349839522E+01 0.67262563292E+01 0.52222177552E+01 0.42584245567E+01
 0.36546974875E+01 0.32897919665E+01 0.30820014196E+01 0.29777837389E+01 0.29463985331E+01
 0.29777837389E+01 0.30820014195E+01 0.32897919665E+01 0.36546974875E+01 0.42584245567E+01
 0.52222177552E+01 0.67262563292E+01 0.90349839522E+01 0.12518770028E+02 0.17653128405E+02
 0.24971008716E+02 0.34829809037E+02 0.46906218384E+02 0.60380390253E+02 0.74043100301E+02
 0.86438844497E+02 0.96132830228E+02 0.10204529340E+03 0.10375924633E+03 0.10170136465E+03
 0.97116883352E+02 0.91804993096E+02 0.87652792674E+02 0.98875285121E+02 0.99578403715E+02
 0.10132441503E+03 0.10314346021E+03 0.10377254894E+03 0.10204529340E+03 0.97227329117E+02
 0.89203864991E+02 0.78485700913E+02 0.66056625817E+02 0.53125896939E+02 0.40868308622E+02
 0.30225735528E+02 0.21803209391E+02 0.15655558117E+02 0.11360252408E+02 0.84528315615E+01
 0.65310457270E+01 0.52855905374E+01 0.44956644774E+01 0.40092596654E+01 0.37223964974E+01
 0.35639365228E+01 0.34868651817E+01 0.34641262768E+01 0.34868651817E+01 0.35639365228E+01
 0.37223964974E+01 0.40092596654E+01 0.44956644774E+01 0.52855905374E+01 0.65310457270E+01
 0.84528315615E+01 0.11360252408E+02 0.15655558117E+02 0.21803209391E+02 0.30225735528E+02
 0.40868308622E+02 0.53125896939E+02 0.66056625817E+02 0.78485700913E+02 0.89203864991E+02
 0.97227329117E+02 0.10204529340E+03 0.10377254894E+03 0.10314346021E+03 0.10132441503E+03
 0.99578403715E+02 0.10389035690E+03 0.10392714863E+03 0.10381359691E+03 0.10295832012E+03
 0.10061267477E+03 0.96132830228E+02 0.89203864991E+02 0.79958414549E+02 0.68963705753E+02
 0.57094299467E+02 0.45340933926E+02 0.34619487017E+02 0.25633231340E+02 0.18748150286E+02
 0.13773926326E+02 0.10318428104E+02 0.79939372066E+01 0.64735563601E+01 0.55080336760E+01
 0.49179296186E+01 0.45766036465E+01 0.43942362353E+01 0.43070547796E+01 0.42716765471E+01
 0.42626804297E+01 0.42716765471E+01 0.43070547796E+01 0.43942362353E+01 0.45766036465E+01
 0.49179296186E+01 0.55080336760E+01 0.64735563601E+01 0.79939372066E+01 0.10318428104E+02
 0.13773926326E+02 0.18748150286E+02 0.25633231340E+02 0.34619487017E+02 0.45340933926E+02
 0.57094299467E+02 0.68963705753E+02 0.79958414549E+02 0.89203864991E+02 0.96132830228E+02
 0.10061267477E+03 0.10295832012E+03 0.10381359691E+03 0.10392714863E+03 0.10112825888E+03
 0.10071458234E+03 0.99355012760E+02 0.96744392239E+02 0.92522783882E+02 0.86438844497E+02
 0.78485700913E+02 0.68963705753E+02 0.58452710377E+02 0.47708338277E+02 0.37520841405E+02
 0.28582621215E+02 0.21386526539E+02 0.15994987190E+02 0.12137359949E+02 0.94864109930E+01
 0.77334162635E+01 0.66230964106E+01 0.59602997517E+01 0.56008586633E+01 0.54380565506E+01
 0.53915781859E+01 0.54011481865E+01 0.54240281546E+01 0.54345172135E+01 0.54240281546E+01
 0.54011481865E+01 0.53915781859E+01 0.54380565506E+01 0.56008586633E+01 0.59602997517E+01
 0.66230964106E+01 0.77334162635E+01 0.94864109930E+01 0.12137359949E+02 0.15994987190E+02
 0.21386526539E+02 0.28582621215E+02 0.37520841405E+02 0.47708338277E+02 0.58452710377E+02
 0.68963705753E+02 0.78485700913E+02 0.86438844497E+02 0.92522783882E+02 0.96744392239E+02
 0.99355012760E+02 0.10071458234E+03 0.91920227307E+02 0.91259744344E+02 0.89232830342E+02
 0.85732271982E+02 0.80664840782E+02 0.74043100301E+02 0.66056625817E+02 0.57094299467E+02
 0.47708338277E+02 0.38532540363E+02 0.30182674160E+02 0.23167336914E+02 0.17709452553E+02
 0.13679888867E+02 0.10843953265E+02 0.89452122236E+01 0.77495574838E+01 0.70641003758E+01
 0.67375267620E+01 0.66516378373E+01 0.67120052212E+01 0.68418948555E+01 0.69801403759E+01
 0.70816186355E+01 0.71185687464E+01 0.70816186355E+01 0.69801403759E+01 0.68418948555E+01
 0.67120052212E+01 0.66516378373E+01 0.67375267620E+01 0.70641003758E+01 0.77495574838E+01
 0.89452122236E+01 0.10843953265E+02 0.13679888867E+02 0.17709452553E+02 0.23167336914E+02
 0.30182674160E+02 0.38532540363E+02 0.47708338277E+02 0.57094299467E+02 0.66056625817E+02
 0.74043100301E+02 0.80664840782E+02 0.85732271982E+02 0.89232830342E+02 0.91259744344E+02
 0.78417553535E+02 0.77677688724E+02 0.75458108934E+02 0.71773824209E+02 0.66692953073E+02
 0.60380390253E+02 0.53125896939E+02 0.45340933926E+02 0.37520841405E+02 0.30182674160E+02
 0.23796713783E+02 0.18645440184E+02 0.14718384339E+02 0.11884823228E+02 0.99642728404E+01
 0.87694797948E+01 0.81313851914E+01 0.79070331474E+01 0.79766515703E+01 0.82370324168E+01
 0.85963807084E+01 0.89728765661E+01 0.92966935084E+01 0.95138562072E+01 0.95901517282E+01
 0.95138562072E+01 0.92966935084E+01 0.89728765661E+01 0.85963807084E+01 0.82370324168E+01
 0.79766515703E+01 0.79070331474E+01 0.81313851914E+01 0.87694797948E+01 0.99642728404E+01
 0.11884823228E+02 0.14718384339E+02 0.18645440184E+02 0.23796713783E+02 0.30182674160E+02
 0.37520841405E+02 0.45340933926E+02 0.53125896939E+02 0.60380390253E+02 0.66692953073E+02
 0.71773824209E+02 0.75458108934E+02 0.77677688724E+02 0.63015179946E+02 0.62315246238E+02
 0.60239590639E+02 0.56866852226E+02 0.52345120201E+02 0.46906218384E+02 0.40868308622E+02
 0.34619487017E+02 0.28582621215E+02 0.23167336914E+02 0.18645440184E+02 0.15085124140E+02
 0.12451176153E+02 0.10646976171E+02 0.95492602467E+01 0.90325189379E+01 0.89803781804E+01
 0.92866274933E+01 0.98508986883E+01 0.10573802246E+02 0.11354838719E+02 0.12094588550E+02
 0.12701022234E+02 0.13098452321E+02 0.13236782004E+02 0.13098452321E+02 0.12701022234E+02
 0.12094588550E+02 0.11354838719E+02 0.10573802246E+02 0.98508986883E+01 0.92866274933E+01
 0.89803781804E+01 0.90325189379E+01 0.95492602467E+01 0.10646976171E+02 0.12451176153E+02
 0.15085124140E+02 0.18645440184E+02 0.23167336914E+02 0.28582621215E+02 0.34619487017E+02
 0.40868308622E+02 0.46906218384E+02 0.52345120201E+02 0.56866852226E+02 0.60239590639E+02
 0.62315246238E+02 0.47856247741E+02 0.47266896596E+02 0.45532379080E+02 0.42754675405E+02
 0.39106490186E+02 0.34829809037E+02 0.30225735528E+02 0.25633231340E+02 0.21386526539E+02
 0.17709452553E+02 0.14718384339E+02 0.12451176153E+02 0.10887537451E+02 0.99728715599E+01
 0.96375214798E+01 0.98074801751E+01 0.10406931795E+02 0.11355365727E+02 0.12562343462E+02
 0.13922585563E+02 0.15313988555E+02 0.16601308348E+02 0.17647408249E+02 0.18331397338E+02
 0.18569423792E+02 0.18331397338E+02 0.17647408249E+02 0.16601308348E+02 0.15313988555E+02
 0.13922585563E+02 0.12562343462E+02 0.11355365727E+02 0.10406931795E+02 0.98074801751E+01
 0.96375214798E+01 0.99728715599E+01 0.10887537451E+02 0.12451176153E+02 0.14718384339E+02
 0.17709452553E+02 0.21386526539E+02 0.25633231340E+02 0.30225735528E+02 0.34829809037E+02
 0.39106490186E+02 0.42754675405E+02 0.45532379080E+02 0.47266896596E+02 0.34522465917E+02
 0.34073783397E+02 0.32761841467E+02 0.30688070666E+02 0.28017637164E+02 0.24971008716E+02
 0.21803209391E+02 0.18748150286E+02 0.15994987190E+02 0.13679888867E+02 0.11884823228E+02
 0.10646976171E+02 0.99728715599E+01 0.98509594484E+01 0.10259027688E+02 0.11166116408E+02
 0.12530387176E+02 0.14293961212E+02 0.16374675785E+02 0.18655514557E+02 0.20975953587E+02
 0.23133150767E+02 0.24900531527E+02 0.26064716953E+02 0.26471573185E+02 0.26064716953E+02
 0.24900531527E+02 0.23133150767E+02 0.20975953587E+02 0.18655514557E+02 0.16374675785E+02
 0.14293961212E+02 0.12530387176E+02 0.11166116408E+02 0.10259027688E+02 0.98509594484E+01
 0.99728715599E+01 0.10646976171E+02 0.11884823228E+02 0.13679888867E+02 0.15994987190E+02
 0.18748150286E+02 0.21803209391E+02 0.24971008716E+02 0.28017637164E+02 0.30688070666E+02
 0.32761841467E+02 0.34073783397E+02 0.23944430574E+02 0.23638177689E+02 0.22749208926E+02
 0.21363284639E+02 0.19611447669E+02 0.17653128405E+02 0.15655558117E+02 0.13773926326E+02
 0.12137359949E+02 0.10843953265E+02 0.99642728404E+01 0.95492602467E+01 0.96375214798E+01
 0.10259027688E+02 0.11435428909E+02 0.13178734545E+02 0.15488405612E+02 0.18343196560E+02
 0.21682593946E+02 0.25377679666E+02 0.29202269196E+02 0.32825001920E+02 0.35841869283E+02
 0.37852493092E+02 0.38559425657E+02 0.37852493092E+02 0.35841869283E+02 0.32825001920E+02
 0.29202269196E+02 0.25377679666E+02 0.21682593946E+02 0.18343196560E+02 0.15488405612E+02
 0.13178734545E+02 0.11435428909E+02 0.10259027688E+02 0.96375214798E+01 0.95492602467E+01
 0.99642728404E+01 0.10843953265E+02 0.12137359949E+02 0.13773926326E+02 0.15655558117E+02
 0.17653128405E+02 0.19611447669E+02 0.21363284639E+02 0.22749208926E+02 0.23638177689E+02
 0.16350383913E+02 0.16159391519E+02 0.15607197235E+02 0.14753259980E+02 0.13687591344E+02
 0.12518770028E+02 0.11360252408E+02 0.10318428104E+02 0.94864109930E+01 0.89452122236E+01
 0.87694797948E+01 0.90325189379E+01 0.98074801751E+01 0.11166116408E+02 0.13178734545E+02
 0.15916455240E+02 0.19450446934E+02 0.23835924756E+02 0.29068207342E+02 0.35011387738E+02
 0.41325756539E+02 0.47441334776E+02 0.52619677156E+02 0.56108297253E+02 0.57341341081E+02
 0.56108297253E+02 0.52619677156E+02 0.47441334776E+02 0.41325756539E+02 0.35011387738E+02
 0.29068207342E+02 0.23835924756E+02 0.19450446934E+02 0.15916455240E+02 0.13178734545E+02
 0.11166116408E+02 0.98074801751E+01 0.90325189379E+01 0.87694797948E+01 0.89452122236E+01
 0.94864109930E+01 0.10318428104E+02 0.11360252408E+02 0.12518770028E+02 0.13687591344E+02
 0.14753259980E+02 0.15607197235E+02 0.16159391519E+02 0.11178283015E+02 0.11066427665E+02
 0.10745690850E+02 0.10257457905E+02 0.96627536853E+01 0.90349839522E+01 0.84528315615E+01
 0.79939372066E+01 0.77334162635E+01 0.77495574838E+01 0.81313851914E+01 0.89803781804E+01
 0.10406931795E+02 0.12530387176E+02 0.15488405612E+02 0.19450446934E+02 0.24619542690E+02
 0.31198256331E+02 0.39294616737E+02 0.48769846153E+02 0.59085097289E+02 0.69248984665E+02
 0.77946329605E+02 0.83846838548E+02 0.85945195878E+02 0.83846838548E+02 0.77946329605E+02
 0.69248984665E+02 0.59085097289E+02 0.48769846153E+02 0.39294616737E+02 0.31198256331E+02
 0.24619542690E+02 0.19450446934E+02 0.15488405612E+02 0.12530387176E+02 0.10406931795E+02
 0.89803781804E+01 0.81313851914E+01 0.77495574838E+01 0.77334162635E+01 0.79939372066E+01
 0.84528315615E+01 0.90349839522E+01 0.96627536854E+01 0.10257457905E+02 0.10745690850E+02
 0.11066427665E+02 0.77544481008E+01 0.76940109578E+01 0.75247882255E+01 0.72778227311E+01
 0.69948664568E+01 0.67262563292E+01 0.65310457270E+01 0.64735563601E+01 0.66230964106E+01
 0.70641003758E+01 0.79070331474E+01 0.92866274933E+01 0.11355365727E+02 0.14293961212E+02
 0.18343196560E+02 0.23835924756E+02 0.31198256331E+02 0.40881109903E+02 0.53177035484E+02
 0.67925108207E+02 0.84236845184E+02 0.10071051800E+03 0.11536597997E+03 0.12562777965E+03
 0.12932884544E+03 0.12562777965E+03 0.11536597997E+03 0.10071051800E+03 0.84236845184E+02
 0.67925108207E+02 0.53177035484E+02 0.40881109903E+02 0.31198256331E+02 0.23835924756E+02
 0.18343196560E+02 0.14293961212E+02 0.11355365727E+02 0.92866274933E+01 0.79070331474E+01
 0.70641003758E+01 0.66230964106E+01 0.64735563601E+01 0.65310457270E+01 0.67262563292E+01
 0.69948664568E+01 0.72778227311E+01 0.75247882255E+01 0.76940109578E+01 0.55275879671E+01
 0.54990810986E+01 0.54259480101E+01 0.53352154016E+01 0.52556289098E+01 0.52222177552E+01
 0.52855905374E+01 0.55080336760E+01 0.59602997517E+01 0.67375267620E+01 0.79766515703E+01
 0.98508986883E+01 0.12562343462E+02 0.16374675785E+02 0.21682593946E+02 0.29068207342E+02
 0.39294616737E+02 0.53177035484E+02 0.71247017372E+02 0.93329395123E+02 0.11896872108E+03
 0.14615251063E+03 0.17078472908E+03 0.18808136005E+03 0.19431164779E+03 0.18808136005E+03
 0.17078472908E+03 0.14615251063E+03 0.11896872108E+03 0.93329395123E+02 0.71247017372E+02
 0.53177035484E+02 0.39294616737E+02 0.29068207342E+02 0.21682593946E+02 0.16374675785E+02
 0.12562343462E+02 0.98508986883E+01 0.79766515703E+01 0.67375267620E+01 0.59602997517E+01
 0.55080336760E+01 0.52855905374E+01 0.52222177552E+01 0.52556289098E+01 0.53352154016E+01
 0.54259480101E+01 0.54990810986E+01 0.40973716908E+01 0.40877462131E+01 0.40742459102E+01
 0.40846925249E+01 0.41381108083E+01 0.42584245567E+01 0.44956644774E+01 0.49179296186E+01
 0.56008586633E+01 0.66516378373E+01 0.82370324168E+01 0.10573802246E+02 0.13922585563E+02
 0.18655514557E+02 0.25377679666E+02 0.35011387738E+02 0.48769846153E+02 0.67925108207E+02
 0.93329395123E+02 0.12607867020E+03 0.16569623903E+03 0.20787842835E+03 0.24561857537E+03
 0.27170332386E+03 0.28100380993E+03 0.27170332386E+03 0.24561857537E+03 0.20787842835E+03
 0.16569623903E+03 0.12607867020E+03 0.93329395123E+02 0.67925108207E+02 0.48769846153E+02
 0.35011387738E+02 0.25377679666E+02 0.18655514557E+02 0.13922585563E+02 0.10573802246E+02
 0.82370324168E+01 0.66516378373E+01 0.56008586633E+01 0.49179296186E+01 0.44956644774E+01
 0.42584245567E+01 0.41381108083E+01 0.40846925249E+01 0.40742459102E+01 0.40877462131E+01
 0.31932973921E+01 0.31940199228E+01 0.32166326948E+01 0.32930898665E+01 0.34341632766E+01
 0.36546974875E+01 0.40092596654E+01 0.45766036465E+01 0.54380565506E+01 0.67120052212E+01
 0.85963807083E+01 0.11354838719E+02 0.15313988555E+02 0.20975953587E+02 0.29202269196E+02
 0.41325756539E+02 0.59085097289E+02 0.84236845184E+02 0.11896872108E+03 0.16569623903E+03
 0.22227237650E+03 0.28123488972E+03 0.33245446433E+03 0.36689921648E+03 0.37897877301E+03
 0.36689921648E+03 0.33245446433E+03 0.28123488972E+03 0.22227237650E+03 0.16569623903E+03
 0.11896872108E+03 0.84236845184E+02 0.59085097289E+02 0.41325756539E+02 0.29202269196E+02
 0.20975953587E+02 0.15313988555E+02 0.11354838719E+02 0.85963807083E+01 0.67120052212E+01
 0.54380565506E+01 0.45766036465E+01 0.40092596654E+01 0.36546974875E+01 0.34341632766E+01
 0.32930898665E+01 0.32166326948E+01 0.31940199228E+01 0.26378304868E+01 0.26434974556E+01
 0.26871007057E+01 0.28064935826E+01 0.30050644046E+01 0.32897919665E+01 0.37223964974E+01
 0.43942362353E+01 0.53915781859E+01 0.68418948555E+01 0.89728765661E+01 0.12094588550E+02
 0.16601308348E+02 0.23133150767E+02 0.32825001920E+02 0.47441334776E+02 0.69248984665E+02
 0.10071051800E+03 0.14615251063E+03 0.20787842835E+03 0.28123488972E+03 0.35519738114E+03
 0.41697865944E+03 0.45703809657E+03 0.47077143805E+03 0.45703809657E+03 0.41697865944E+03
 0.35519738114E+03 0.28123488972E+03 0.20787842835E+03 0.14615251063E+03 0.10071051800E+03
 0.69248984665E+02 0.47441334776E+02 0.32825001920E+02 0.23133150767E+02 0.16601308348E+02
 0.12094588550E+02 0.89728765661E+01 0.68418948555E+01 0.53915781859E+01 0.43942362353E+01
 0.37223964974E+01 0.32897919665E+01 0.30050644046E+01 0.28064935826E+01 0.26871007057E+01
 0.26434974556E+01 0.23146211219E+01 0.23221122549E+01 0.23771002538E+01 0.25233934624E+01
 0.27581860552E+01 0.30820014195E+01 0.35639365228E+01 0.43070547796E+01 0.54011481865E+01
 0.69801403759E+01 0.92966935084E+01 0.12701022234E+02 0.17647408249E+02 0.24900531527E+02
 0.35841869283E+02 0.52619677156E+02 0.77946329605E+02 0.11536597997E+03 0.17078472908E+03
 0.24561857537E+03 0.33245446433E+03 0.41697865944E+03 0.48465089987E+03 0.52672694145E+03
 0.54075801498E+03 0.52672694145E+03 0.48465089987E+03 0.41697865944E+03 0.33245446433E+03
 0.24561857537E+03 0.17078472908E+03 0.11536597997E+03 0.77946329605E+02 0.52619677156E+02
 0.35841869283E+02 0.24900531527E+02 0.17647408249E+02 0.12701022234E+02 0.92966935084E+01
 0.69801403759E+01 0.54011481865E+01 0.43070547796E+01 0.35639365228E+01 0.30820014195E+01
 0.27581860552E+01 0.25233934624E+01 0.23771002538E+01 0.23221122549E+01 0.21489298562E+01
 0.21568033838E+01 0.22172062608E+01 0.23783220396E+01 0.26331209861E+01 0.29777837389E+01
 0.34868651817E+01 0.42716765470E+01 0.54240281546E+01 0.70816186354E+01 0.95138562072E+01
 0.13098452321E+02 0.18331397338E+02 0.26064716953E+02 0.37852493092E+02 0.56108297253E+02
 0.83846838548E+02 0.12562777965E+03 0.18808136005E+03 0.27170332386E+03 0.36689921648E+03
 0.45703809657E+03 0.52672694145E+03 0.56847609764E+03 0.58203906276E+03 0.56847609764E+03
 0.52672694145E+03 0.45703809657E+03 0.36689921648E+03 0.27170332386E+03 0.18808136005E+03
 0.12562777965E+03 0.83846838548E+02 0.56108297253E+02 0.37852493092E+02 0.26064716953E+02
 0.18331397338E+02 0.13098452321E+02 0.95138562072E+01 0.70816186354E+01 0.54240281546E+01
 0.42716765470E+01 0.34868651817E+01 0.29777837389E+01 0.26331209861E+01 0.23783220396E+01
 0.22172062608E+01 0.21568033838E+01 0.20983087608E+01 0.21061872847E+01 0.21681606779E+01
 0.23340162503E+01 0.25952155980E+01 0.29463985331E+01 0.34641262768E+01 0.42626804297E+01
 0.54345172135E+01 0.71185687464E+01 0.95901517282E+01 0.13236782004E+02 0.18569423792E+02
 0.26471573185E+02 0.38559425657E+02 0.57341341081E+02 0.85945195878E+02 0.12932884544E+03
 0.19431164779E+03 0.28100380993E+03 0.37897877301E+03 0.47077143805E+03 0.54075801498E+03
 0.58203906276E+03 0.59529762651E+03 0.58203906276E+03 0.54075801498E+03 0.47077143805E+03
 0.37897877301E+03 0.28100380993E+03 0.19431164779E+03 0.12932884544E+03 0.85945195878E+02
 0.57341341081E+02 0.38559425657E+02 0.26471573185E+02 0.18569423792E+02 0.13236782004E+02
 0.95901517282E+01 0.71185687464E+01 0.54345172135E+01 0.42626804297E+01 0.34641262768E+01
 0.29463985331E+01 0.25952155980E+01 0.23340162503E+01 0.21681606779E+01 0.21061872847E+01
 0.21489298562E+01 0.21568033838E+01 0.22172062608E+01 0.23783220396E+01 0.26331209861E+01
 0.29777837389E+01 0.34868651817E+01 0.42716765470E+01 0.54240281546E+01 0.70816186354E+01
 0.95138562072E+01 0.13098452321E+02 0.18331397338E+02 0.26064716953E+02 0.37852493092E+02
 0.56108297253E+02 0.83846838548E+02 0.12562777965E+03 0.18808136005E+03 0.27170332386E+03
 0.36689921648E+03 0.45703809657E+03 0.52672694145E+03 0.56847609764E+03 0.58203906276E+03
 0.56847609764E+03 0.52672694145E+03 0.45703809657E+03 0.36689921648E+03 0.27170332386E+03
 0.18808136005E+03 0.12562777965E+03 0.83846838548E+02 0.56108297253E+02 0.37852493092E+02
 0.26064716953E+02 0.18331397338E+02 0.13098452321E+02 0.95138562072E+01 0.70816186354E+01
 0.54240281546E+01 0.42716765470E+01 0.34868651817E+01 0.29777837389E+01 0.26331209861E+01
 0.23783220396E+01 0.22172062608E+01 0.21568033838E+01 0.23146211219E+01 0.23221122549E+01
 0.23771002538E+01 0.25233934624E+01 0.27581860552E+01 0.30820014195E+01 0.35639365228E+01
 0.43070547796E+01 0.54011481865E+01 0.69801403759E+01 0.92966935084E+01 0.12701022234E+02
 0.17647408249E+02 0.24900531527E+02 0.35841869283E+02 0.52619677156E+02 0.77946329605E+02
 0.11536597997E+03 0.17078472908E+03 0.24561857537E+03 0.33245446433E+03 0.41697865944E+03
 0.48465089987E+03 0.52672694145E+03 0.54075801498E+03 0.52672694145E+03 0.48465089987E+03
 0.41697865944E+03 0.33245446433E+03 0.24561857537E+03 0.17078472908E+03 0.11536597997E+03
 0.77946329605E+02 0.52619677156E+02 0.35841869283E+02 0.24900531527E+02 0.17647408249E+02
 0.12701022234E+02 0.92966935084E+01 0.69801403759E+01 0.54011481865E+01 0.43070547796E+01
 0.35639365228E+01 0.30820014195E+01 0.27581860552E+01 0.25233934624E+01 0.23771002538E+01
 0.23221122549E+01 0.26378304868E+01 0.26434974556E+01 0.26871007057E+01 0.28064935826E+01
 0.30050644046E+01 0.32897919665E+01 0.37223964974E+01 0.43942362353E+01 0.53915781859E+01
 0.68418948555E+01 0.89728765661E+01 0.12094588550E+02 0.16601308348E+02 0.23133150767E+02
 0.32825001920E+02 0.47441334776E+02 0.69248984665E+02 0.10071051800E+03 0.14615251063E+03
 0.20787842835E+03 0.28123488972E+03 0.35519738114E+03 0.41697865944E+03 0.45703809657E+03
 0.47077143805E+03 0.45703809657E+03 0.41697865944E+03 0.35519738114E+03 0.28123488972E+03
 0.20787842835E+03 0.14615251063E+03 0.10071051800E+03 0.69248984665E+02 0.47441334776E+02
 0.32825001920E+02 0.23133150767E+02 0.16601308348E+02 0.12094588550E+02 0.89728765661E+01
 0.68418948555E+01 0.53915781859E+01 0.43942362353E+01 0.37223964974E+01 0.32897919665E+01
 0.30050644046E+01 0.28064935826E+01 0.26871007057E+01 0.26434974556E+01 0.31932973921E+01
 0.31940199228E+01 0.32166326948E+01 0.32930898665E+01 0.34341632766E+01 0.36546974875E+01
 0.40092596654E+01 0.45766036465E+01 0.54380565506E+01 0.67120052212E+01 0.85963807083E+01
 0.11354838719E+02 0.15313988555E+02 0.20975953587E+02 0.29202269196E+02 0.41325756539E+02
 0.59085097289E+02 0.84236845184E+02 0.11896872108E+03 0.16569623903E+03 0.22227237650E+03
 0.28123488972E+03 0.33245446433E+03 0.36689921648E+03 0.37897877301E+03 0.36689921648E+03
 0.33245446433E+03 0.28123488972E+03 0.22227237650E+03 0.16569623903E+03 0.11896872108E+03
 0.84236845184E+02 0.59085097289E+02 0.41325756539E+02 0.29202269196E+02 0.20975953587E+02
 0.15313988555E+02 0.11354838719E+02 0.85963807083E+01 0.67120052212E+01 0.54380565506E+01
 0.45766036465E+01 0.40092596654E+01 0.36546974875E+01 0.34341632766E+01 0.32930898665E+01
 0.32166326948E+01 0.31940199228E+01 0.40973716908E+01 0.40877462131E+01 0.40742459102E+01
 0.40846925249E+01 0.41381108083E+01 0.42584245567E+01 0.44956644774E+01 0.49179296186E+01
 0.56008586633E+01 0.66516378373E+01 0.82370324168E+01 0.10573802246E+02 0.13922585563E+02
 0.18655514557E+02 0.25377679666E+02 0.35011387738E+02 0.48769846153E+02 0.67925108207E+02
 0.93329395123E+02 0.12607867020E+03 0.16569623903E+03 0.20787842835E+03 0.24561857537E+03
 0.27170332386E+03 0.28100380993E+03 0.27170332386E+03 0.24561857537E+03 0.20787842835E+03
 0.16569623903E+03 0.12607867020E+03 0.93329395123E+02 0.67925108207E+02 0.48769846153E+02
 0.35011387738E+02 0.25377679666E+02 0.18655514557E+02 0.13922585563E+02 0.10573802246E+02
 0.82370324168E+01 0.66516378373E+01 0.56008586633E+01 0.49179296186E+01 0.44956644774E+01
 0.42584245567E+01 0.41381108083E+01 0.40846925249E+01 0.40742459102E+01 0.40877462131E+01
 0.55275879670E+01 0.54990810986E+01 0.54259480101E+01 0.53352154016E+01 0.52556289098E+01
 0.52222177552E+01 0.52855905374E+01 0.55080336760E+01 0.59602997517E+01 0.67375267620E+01
 0.79766515703E+01 0.98508986883E+01 0.12562343462E+02 0.16374675785E+02 0.21682593946E+02
 0.29068207342E+02 0.39294616737E+02 0.53177035484E+02 0.71247017372E+02 0.93329395123E+02
 0.11896872108E+03 0.14615251063E+03 0.17078472908E+03 0.18808136005E+03 0.19431164779E+03
 0.18808136005E+03 0.17078472908E+03 0.14615251063E+03 0.11896872108E+03 0.93329395123E+02
 0.71247017372E+02 0.53177035484E+02 0.39294616737E+02 0.29068207342E+02 0.21682593946E+02
 0.16374675785E+02 0.12562343462E+02 0.98508986883E+01 0.79766515703E+01 0.67375267620E+01
 0.59602997517E+01 0.55080336760E+01 0.52855905374E+01 0.52222177552E+01 0.52556289098E+01
 0.53352154016E+01 0.54259480101E+01 0.54990810986E+01 0.77544481008E+01 0.76940109578E+01
 0.75247882255E+01 0.72778227311E+01 0.69948664568E+01 0.67262563292E+01 0.65310457270E+01
 0.64735563601E+01 0.66230964106E+01 0.70641003758E+01 0.79070331474E+01 0.92866274933E+01
 0.11355365727E+02 0.14293961212E+02 0.18343196560E+02 0.23835924756E+02 0.31198256331E+02
 0.40881109903E+02 0.53177035484E+02 0.67925108207E+02 0.84236845184E+02 0.10071051800E+03
 0.11536597997E+03 0.12562777965E+03 0.12932884544E+03 0.12562777965E+03 0.11536597997E+03
 0.10071051800E+03 0.84236845184E+02 0.67925108207E+02 0.53177035484E+02 0.40881109903E+02
 0.31198256331E+02 0.23835924756E+02 0.18343196560E+02 0.14293961212E+02 0.11355365727E+02
 0.92866274933E+01 0.79070331474E+01 0.70641003758E+01 0.66230964106E+01 0.64735563601E+01
 0.65310457270E+01 0.67262563292E+01 0.69948664568E+01 0.72778227311E+01 0.75247882255E+01
 0.76940109578E+01 0.11178283015E+02 0.11066427665E+02 0.10745690850E+02 0.10257457905E+02
 0.96627536854E+01 0.90349839522E+01 0.84528315615E+01 0.79939372066E+01 0.77334162635E+01
 0.77495574838E+01 0.81313851914E+01 0.89803781804E+01 0.10406931795E+02 0.12530387176E+02
 0.15488405612E+02 0.19450446934E+02 0.24619542690E+02 0.31198256331E+02 0.39294616737E+02
 0.48769846153E+02 0.59085097289E+02 0.69248984665E+02 0.77946329605E+02 0.83846838548E+02
 0.85945195878E+02 0.83846838548E+02 0.77946329605E+02 0.69248984665E+02 0.59085097289E+02
 0.48769846153E+02 0.39294616737E+02 0.31198256331E+02 0.24619542690E+02 0.19450446934E+02
 0.15488405612E+02 0.12530387176E+02 0.10406931795E+02 0.89803781804E+01 0.81313851914E+01
 0.77495574838E+01 0.77334162635E+01 0.79939372066E+01 0.84528315615E+01 0.90349839522E+01
 0.96627536853E+01 0.10257457905E+02 0.10745690850E+02 0.11066427665E+02 0.16350383913E+02
 0.16159391519E+02 0.15607197235E+02 0.14753259980E+02 0.13687591344E+02 0.12518770028E+02
 0.11360252408E+02 0.10318428104E+02 0.94864109930E+01 0.89452122236E+01 0.87694797948E+01
 0.90325189379E+01 0.98074801751E+01 0.11166116408E+02 0.13178734545E+02 0.15916455240E+02
 0.19450446934E+02 0.23835924756E+02 0.29068207342E+02 0.35011387738E+02 0.41325756539E+02
 0.47441334776E+02 0.52619677156E+02 0.56108297253E+02 0.57341341081E+02 0.56108297253E+02
 0.52619677156E+02 0.47441334776E+02 0.41325756539E+02 0.35011387738E+02 0.29068207342E+02
 0.23835924756E+02 0.19450446934E+02 0.15916455240E+02 0.13178734545E+02 0.11166116408E+02
 0.98074801751E+01 0.90325189379E+01 0.87694797948E+01 0.89452122236E+01 0.94864109930E+01