   5   5   0   0
  0.1473309E+02  0.4192000E-09  0.4192000E-09  0.4192000E-09  0.5000000E-15
  1.000000000000000E-004
  CAR 
 unknown system                          
     15.78634154    -46.04497601  301      4.06415425      1.00000000
    -46.045  0.0000E+00  0.0000E+00
    -45.839  0.0000E+00  0.0000E+00
    -45.633  0.0000E+00  0.0000E+00
    -45.427  0.0000E+00  0.0000E+00
    -45.221  0.0000E+00  0.0000E+00
    -45.014  0.0000E+00  0.0000E+00
    -44.808  0.0000E+00  0.0000E+00
    -44.602  0.0000E+00  0.0000E+00
    -44.396  0.0000E+00  0.0000E+00
    -44.190  0.0000E+00  0.0000E+00
    -43.984  0.0000E+00  0.0000E+00
    -43.778  0.0000E+00  0.0000E+00
    -43.572  0.0000E+00  0.0000E+00
    -43.366  0.6096E-03  0.1256E-03
    -43.160  0.9474E+01  0.1953E+01
    -42.953  0.2288E+00  0.2000E+01
    -42.747  0.0000E+00  0.2000E+01
    -42.541  0.0000E+00  0.2000E+01
    -42.335  0.0000E+00  0.2000E+01
    -42.129  0.0000E+00  0.2000E+01
    -41.923  0.0000E+00  0.2000E+01
    -41.717  0.0000E+00  0.2000E+01
    -41.511  0.0000E+00  0.2000E+01
    -41.305  0.0000E+00  0.2000E+01
    -41.098  0.0000E+00  0.2000E+01
    -40.892  0.0000E+00  0.2000E+01
    -40.686  0.0000E+00  0.2000E+01
    -40.480  0.0000E+00  0.2000E+01
    -40.274  0.0000E+00  0.2000E+01
    -40.068  0.0000E+00  0.2000E+01
    -39.862  0.0000E+00  0.2000E+01
    -39.656  0.0000E+00  0.2000E+01
    -39.450  0.0000E+00  0.2000E+01
    -39.244  0.0000E+00  0.2000E+01
    -39.037  0.0000E+00  0.2000E+01
    -38.831  0.0000E+00  0.2000E+01
    -38.625  0.0000E+00  0.2000E+01
    -38.419  0.0000E+00  0.2000E+01
    -38.213  0.0000E+00  0.2000E+01
    -38.007  0.0000E+00  0.2000E+01
    -37.801  0.0000E+00  0.2000E+01
    -37.595  0.0000E+00  0.2000E+01
    -37.389  0.0000E+00  0.2000E+01
    -37.182  0.0000E+00  0.2000E+01
    -36.976  0.0000E+00  0.2000E+01
    -36.770  0.0000E+00  0.2000E+01
    -36.564  0.0000E+00  0.2000E+01
    -36.358  0.0000E+00  0.2000E+01
    -36.152  0.0000E+00  0.2000E+01
    -35.946  0.0000E+00  0.2000E+01
    -35.740  0.0000E+00  0.2000E+01
    -35.534  0.0000E+00  0.2000E+01
    -35.328  0.0000E+00  0.2000E+01
    -35.121  0.0000E+00  0.2000E+01
    -34.915  0.0000E+00  0.2000E+01
    -34.709  0.0000E+00  0.2000E+01
    -34.503  0.0000E+00  0.2000E+01
    -34.297  0.0000E+00  0.2000E+01
    -34.091  0.0000E+00  0.2000E+01
    -33.885  0.0000E+00  0.2000E+01
    -33.679  0.0000E+00  0.2000E+01
    -33.473  0.0000E+00  0.2000E+01
    -33.267  0.0000E+00  0.2000E+01
    -33.060  0.0000E+00  0.2000E+01
    -32.854  0.0000E+00  0.2000E+01
    -32.648  0.0000E+00  0.2000E+01
    -32.442  0.0000E+00  0.2000E+01
    -32.236  0.0000E+00  0.2000E+01
    -32.030  0.0000E+00  0.2000E+01
    -31.824  0.0000E+00  0.2000E+01
    -31.618  0.0000E+00  0.2000E+01
    -31.412  0.0000E+00  0.2000E+01
    -31.205  0.0000E+00  0.2000E+01
    -30.999  0.0000E+00  0.2000E+01
    -30.793  0.0000E+00  0.2000E+01
    -30.587  0.0000E+00  0.2000E+01
    -30.381  0.0000E+00  0.2000E+01
    -30.175  0.0000E+00  0.2000E+01
    -29.969  0.0000E+00  0.2000E+01
    -29.763  0.0000E+00  0.2000E+01
    -29.557  0.0000E+00  0.2000E+01
    -29.351  0.0000E+00  0.2000E+01
    -29.144  0.0000E+00  0.2000E+01
    -28.938  0.0000E+00  0.2000E+01
    -28.732  0.0000E+00  0.2000E+01
    -28.526  0.0000E+00  0.2000E+01
    -28.320  0.0000E+00  0.2000E+01
    -28.114  0.0000E+00  0.2000E+01
    -27.908  0.0000E+00  0.2000E+01
    -27.702  0.0000E+00  0.2000E+01
    -27.496  0.0000E+00  0.2000E+01
    -27.289  0.0000E+00  0.2000E+01
    -27.083  0.0000E+00  0.2000E+01
    -26.877  0.0000E+00  0.2000E+01
    -26.671  0.0000E+00  0.2000E+01
    -26.465  0.0000E+00  0.2000E+01
    -26.259  0.0000E+00  0.2000E+01
    -26.053  0.0000E+00  0.2000E+01
    -25.847  0.0000E+00  0.2000E+01
    -25.641  0.0000E+00  0.2000E+01
    -25.435  0.0000E+00  0.2000E+01
    -25.228  0.0000E+00  0.2000E+01
    -25.022  0.0000E+00  0.2000E+01
    -24.816  0.0000E+00  0.2000E+01
    -24.610  0.0000E+00  0.2000E+01
    -24.404  0.0000E+00  0.2000E+01
    -24.198  0.0000E+00  0.2000E+01
    -23.992  0.0000E+00  0.2000E+01
    -23.786  0.0000E+00  0.2000E+01
    -23.580  0.0000E+00  0.2000E+01
    -23.373  0.0000E+00  0.2000E+01
    -23.167  0.0000E+00  0.2000E+01
    -22.961  0.0000E+00  0.2000E+01
    -22.755  0.0000E+00  0.2000E+01
    -22.549  0.0000E+00  0.2000E+01
    -22.343  0.0000E+00  0.2000E+01
    -22.137  0.0000E+00  0.2000E+01
    -21.931  0.5543E-05  0.2000E+01
    -21.725  0.2028E+01  0.2418E+01
    -21.519  0.1394E+02  0.5292E+01
    -21.312  0.2127E+02  0.9676E+01
    -21.106  0.1570E+01  0.1000E+02
    -20.900  0.0000E+00  0.1000E+02
    -20.694  0.0000E+00  0.1000E+02
    -20.488  0.0000E+00  0.1000E+02
    -20.282  0.0000E+00  0.1000E+02
    -20.076  0.0000E+00  0.1000E+02
    -19.870  0.0000E+00  0.1000E+02
    -19.664  0.0000E+00  0.1000E+02
    -19.458  0.0000E+00  0.1000E+02
    -19.251  0.0000E+00  0.1000E+02
    -19.045  0.0000E+00  0.1000E+02
    -18.839  0.0000E+00  0.1000E+02
    -18.633  0.0000E+00  0.1000E+02
    -18.427  0.0000E+00  0.1000E+02
    -18.221  0.0000E+00  0.1000E+02
    -18.015  0.0000E+00  0.1000E+02
    -17.809  0.0000E+00  0.1000E+02
    -17.603  0.0000E+00  0.1000E+02
    -17.396  0.0000E+00  0.1000E+02
    -17.190  0.0000E+00  0.1000E+02
    -16.984  0.0000E+00  0.1000E+02
    -16.778  0.0000E+00  0.1000E+02
    -16.572  0.0000E+00  0.1000E+02
    -16.366  0.0000E+00  0.1000E+02
    -16.160  0.0000E+00  0.1000E+02
    -15.954  0.0000E+00  0.1000E+02
    -15.748  0.0000E+00  0.1000E+02
    -15.542  0.0000E+00  0.1000E+02
    -15.335  0.0000E+00  0.1000E+02
    -15.129  0.0000E+00  0.1000E+02
    -14.923  0.0000E+00  0.1000E+02
    -14.717  0.0000E+00  0.1000E+02
    -14.511  0.0000E+00  0.1000E+02
    -14.305  0.0000E+00  0.1000E+02
    -14.099  0.0000E+00  0.1000E+02
    -13.893  0.0000E+00  0.1000E+02
    -13.687  0.0000E+00  0.1000E+02
    -13.480  0.0000E+00  0.1000E+02
    -13.274  0.0000E+00  0.1000E+02
    -13.068  0.0000E+00  0.1000E+02
    -12.862  0.8611E-06  0.1000E+02
    -12.656  0.5525E+00  0.1011E+02
    -12.450  0.4012E+01  0.1094E+02
    -12.244  0.3338E+01  0.1163E+02
    -12.038  0.5609E+01  0.1278E+02
    -11.832  0.1579E+01  0.1311E+02
    -11.626  0.6667E+01  0.1448E+02
    -11.419  0.6018E+01  0.1572E+02
    -11.213  0.1337E+01  0.1600E+02
    -11.007  0.2179E-07  0.1600E+02
    -10.801  0.0000E+00  0.1600E+02
    -10.595  0.0000E+00  0.1600E+02
    -10.389  0.0000E+00  0.1600E+02
    -10.183  0.0000E+00  0.1600E+02
     -9.977  0.0000E+00  0.1600E+02
     -9.771  0.0000E+00  0.1600E+02
     -9.564  0.0000E+00  0.1600E+02
     -9.358  0.0000E+00  0.1600E+02
     -9.152  0.0000E+00  0.1600E+02
     -8.946  0.0000E+00  0.1600E+02
     -8.740  0.0000E+00  0.1600E+02
     -8.534  0.0000E+00  0.1600E+02
     -8.328  0.0000E+00  0.1600E+02
     -8.122  0.0000E+00  0.1600E+02
     -7.916  0.0000E+00  0.1600E+02
     -7.710  0.0000E+00  0.1600E+02
     -7.503  0.0000E+00  0.1600E+02
     -7.297  0.9119E-07  0.1600E+02
     -7.091  0.3075E+00  0.1606E+02
     -6.885  0.2882E+01  0.1666E+02
     -6.679  0.1067E+02  0.1886E+02
     -6.473  0.1403E+02  0.2175E+02
     -6.267  0.1221E+01  0.2200E+02
     -6.061  0.3049E-07  0.2200E+02
     -5.855  0.0000E+00  0.2200E+02
     -5.649  0.0000E+00  0.2200E+02
     -5.442  0.0000E+00  0.2200E+02
     -5.236  0.0000E+00  0.2200E+02
     -5.030  0.0000E+00  0.2200E+02
     -4.824  0.0000E+00  0.2200E+02
     -4.618  0.0000E+00  0.2200E+02
     -4.412  0.0000E+00  0.2200E+02
     -4.206  0.0000E+00  0.2200E+02
     -4.000  0.0000E+00  0.2200E+02
     -3.794  0.0000E+00  0.2200E+02
     -3.587  0.0000E+00  0.2200E+02
     -3.381  0.0000E+00  0.2200E+02
     -3.175  0.0000E+00  0.2200E+02
     -2.969  0.0000E+00  0.2200E+02
     -2.763  0.0000E+00  0.2200E+02
     -2.557  0.0000E+00  0.2200E+02
     -2.351  0.0000E+00  0.2200E+02
     -2.145  0.0000E+00  0.2200E+02
     -1.939  0.0000E+00  0.2200E+02
     -1.733  0.0000E+00  0.2200E+02
     -1.526  0.0000E+00  0.2200E+02
     -1.320  0.0000E+00  0.2200E+02
     -1.114  0.0000E+00  0.2200E+02
     -0.908  0.0000E+00  0.2200E+02
     -0.702  0.0000E+00  0.2200E+02
     -0.496  0.0000E+00  0.2200E+02
     -0.290  0.0000E+00  0.2200E+02
     -0.084  0.2748E-09  0.2200E+02
      0.122  0.7329E+00  0.2215E+02
      0.329  0.6834E+01  0.2356E+02
      0.535  0.1589E+01  0.2389E+02
      0.741  0.2199E+01  0.2434E+02
      0.947  0.7382E+01  0.2586E+02
      1.153  0.2344E+01  0.2634E+02
      1.359  0.3618E+01  0.2709E+02
      1.565  0.7423E+01  0.2862E+02
      1.771  0.7164E+01  0.3010E+02
      1.977  0.5942E+01  0.3132E+02
      2.183  0.4396E+01  0.3223E+02
      2.390  0.2681E+01  0.3278E+02
      2.596  0.4421E+01  0.3369E+02
      2.802  0.4051E+01  0.3453E+02
      3.008  0.6955E+01  0.3596E+02
      3.214  0.9675E+01  0.3795E+02
      3.420  0.4598E+01  0.3890E+02
      3.626  0.3599E+01  0.3964E+02
      3.832  0.1730E+01  0.4000E+02
      4.038  0.9800E-03  0.4000E+02
      4.244  0.0000E+00  0.4000E+02
      4.451  0.0000E+00  0.4000E+02
      4.657  0.0000E+00  0.4000E+02
      4.863  0.0000E+00  0.4000E+02
      5.069  0.0000E+00  0.4000E+02
      5.275  0.0000E+00  0.4000E+02
      5.481  0.0000E+00  0.4000E+02
      5.687  0.0000E+00  0.4000E+02
      5.893  0.0000E+00  0.4000E+02
      6.099  0.0000E+00  0.4000E+02
      6.306  0.0000E+00  0.4000E+02
      6.512  0.0000E+00  0.4000E+02
      6.718  0.0000E+00  0.4000E+02
      6.924  0.1554E-11  0.4000E+02
      7.130  0.6136E-01  0.4001E+02
      7.336  0.8340E+00  0.4018E+02
      7.542  0.6040E+00  0.4031E+02
      7.748  0.5785E+00  0.4043E+02
      7.954  0.1642E+01  0.4077E+02
      8.160  0.1997E+01  0.4118E+02
      8.367  0.6074E+00  0.4130E+02
      8.573  0.7902E+00  0.4147E+02
      8.779  0.2363E+01  0.4195E+02
      8.985  0.2910E+01  0.4255E+02
      9.191  0.2830E+01  0.4314E+02
      9.397  0.2551E+01  0.4366E+02
      9.603  0.4684E+01  0.4463E+02
      9.809  0.4220E+01  0.4550E+02
     10.015  0.2022E+01  0.4591E+02
     10.222  0.1156E+01  0.4615E+02
     10.428  0.9978E+00  0.4636E+02
     10.634  0.1594E+01  0.4669E+02
     10.840  0.4524E+00  0.4678E+02
     11.046  0.6394E+00  0.4691E+02
     11.252  0.1178E+01  0.4715E+02
     11.458  0.1370E+01  0.4744E+02
     11.664  0.3484E-02  0.4744E+02
     11.870  0.1327E-03  0.4744E+02
     12.076  0.9413E+00  0.4763E+02
     12.283  0.8781E+00  0.4781E+02
     12.489  0.1388E-04  0.4781E+02
     12.695  0.5356E-02  0.4781E+02
     12.901  0.4572E+00  0.4791E+02
     13.107  0.4472E+00  0.4800E+02
     13.313  0.4720E-04  0.4800E+02
     13.519  0.0000E+00  0.4800E+02
     13.725  0.0000E+00  0.4800E+02
     13.931  0.0000E+00  0.4800E+02
     14.138  0.0000E+00  0.4800E+02
     14.344  0.0000E+00  0.4800E+02
     14.550  0.0000E+00  0.4800E+02
     14.756  0.0000E+00  0.4800E+02
     14.962  0.0000E+00  0.4800E+02
     15.168  0.0000E+00  0.4800E+02
     15.374  0.0000E+00  0.4800E+02
     15.580  0.0000E+00  0.4800E+02
     15.786  0.0000E+00  0.4800E+02
