       N       E                     dE             d eps       ncg     rms          rms(c)
DAV:   1     0.323242214028E+03    0.32324E+03   -0.22077E+04   960   0.159E+03
DAV:   2    -0.294285314638E+02   -0.35267E+03   -0.34595E+03  1272   0.387E+02
DAV:   3    -0.487035329544E+02   -0.19275E+02   -0.19258E+02  1520   0.911E+01
DAV:   4    -0.492500876584E+02   -0.54655E+00   -0.54645E+00  1400   0.120E+01
DAV:   5    -0.492609601353E+02   -0.10872E-01   -0.10872E-01  1368   0.130E+00    0.289E+01
RMM:   6    -0.413374524156E+02    0.79235E+01   -0.38257E+01   988   0.310E+01    0.129E+01
RMM:   7    -0.417036138663E+02   -0.36616E+00   -0.57419E+00  1369   0.960E+00    0.696E+00
RMM:   8    -0.417194567432E+02   -0.15843E-01   -0.14490E+00  1246   0.707E+00    0.186E+00
RMM:   9    -0.416620626670E+02    0.57394E-01   -0.47260E-01  1364   0.345E+00    0.509E-01
RMM:  10    -0.416848954749E+02   -0.22833E-01   -0.24488E-01  1478   0.201E+00    0.676E-01
RMM:  11    -0.416826109890E+02    0.22845E-02   -0.86246E-02  1388   0.164E+00    0.214E-01
RMM:  12    -0.416845191356E+02   -0.19081E-02   -0.31297E-02  1479   0.849E-01    0.213E-01
RMM:  13    -0.416852847749E+02   -0.76564E-03   -0.13631E-02  1558   0.526E-01    0.671E-02
RMM:  14    -0.416860012181E+02   -0.71644E-03   -0.84103E-03  1558   0.356E-01    0.624E-02
RMM:  15    -0.416863681463E+02   -0.36693E-03   -0.40641E-03  1646   0.212E-01    0.535E-02
RMM:  16    -0.416865992118E+02   -0.23107E-03   -0.25890E-03  1702   0.158E-01    0.494E-02
RMM:  17    -0.416867486654E+02   -0.14945E-03   -0.17221E-03  1608   0.138E-01    0.943E-03
RMM:  18    -0.416868555350E+02   -0.10687E-03   -0.12333E-03  1650   0.101E-01    0.145E-02
RMM:  19    -0.416869434409E+02   -0.87906E-04   -0.10025E-03  1673   0.832E-02    0.595E-03
RMM:  20    -0.416870169205E+02   -0.73480E-04   -0.84881E-04  1675   0.674E-02    0.110E-02
RMM:  21    -0.416870825569E+02   -0.65636E-04   -0.74988E-04  1578   0.650E-02    0.547E-03
RMM:  22    -0.416871368476E+02   -0.54291E-04   -0.63034E-04  1560   0.525E-02    0.809E-03
RMM:  23    -0.416871823634E+02   -0.45516E-04   -0.53268E-04  1397   0.466E-02    0.936E-03
RMM:  24    -0.416872198069E+02   -0.37443E-04   -0.44163E-04  1222   0.426E-02    0.107E-02
RMM:  25    -0.416872512818E+02   -0.31475E-04   -0.37408E-04  1311   0.403E-02    0.102E-02
RMM:  26    -0.416872784628E+02   -0.27181E-04   -0.32385E-04  1182   0.375E-02    0.112E-02
RMM:  27    -0.416873030490E+02   -0.24586E-04   -0.29562E-04  1470   0.363E-02    0.100E-02
RMM:  28    -0.416873263351E+02   -0.23286E-04   -0.27849E-04  1630   0.371E-02    0.684E-03
RMM:  29    -0.416873490093E+02   -0.22674E-04   -0.26811E-04  1049   0.319E-02    0.696E-03
RMM:  30    -0.416873708086E+02   -0.21799E-04   -0.25720E-04  1292   0.310E-02    0.715E-03
RMM:  31    -0.416873919214E+02   -0.21113E-04   -0.24806E-04   896   0.291E-02    0.732E-03
RMM:  32    -0.416874119154E+02   -0.19994E-04   -0.23465E-04   869   0.279E-02    0.787E-03
RMM:  33    -0.416874308220E+02   -0.18907E-04   -0.22218E-04  1351   0.281E-02    0.698E-03
RMM:  34    -0.416874484597E+02   -0.17638E-04   -0.20637E-04   830   0.252E-02    0.737E-03
RMM:  35    -0.416874648406E+02   -0.16381E-04   -0.19185E-04   851   0.236E-02    0.780E-03
RMM:  36    -0.416874791503E+02   -0.14310E-04   -0.16865E-04  1288   0.231E-02    0.741E-03
RMM:  37    -0.416874918003E+02   -0.12650E-04   -0.14944E-04  1510   0.227E-02    0.598E-03
RMM:  38    -0.416875022149E+02   -0.10415E-04   -0.12398E-04   909   0.193E-02    0.589E-03
RMM:  39    -0.416875107749E+02   -0.85600E-05   -0.10346E-04   993   0.180E-02    0.588E-03
RMM:  40    -0.416875172855E+02   -0.65106E-05   -0.80410E-05  1524   0.189E-02    0.389E-03
RMM:  41    -0.416875234032E+02   -0.61177E-05   -0.73151E-05  1562   0.184E-02    0.194E-03
RMM:  42    -0.416875285985E+02   -0.51953E-05   -0.62413E-05  1384   0.160E-02    0.975E-04
RMM:  43    -0.416875337347E+02   -0.51361E-05   -0.62358E-05   866   0.137E-02    0.680E-04
RMM:  44    -0.416875379672E+02   -0.42325E-05   -0.53293E-05   816   0.127E-02    0.560E-04
RMM:  45    -0.416875423688E+02   -0.44017E-05   -0.53994E-05   890   0.121E-02    0.550E-04
RMM:  46    -0.416875459472E+02   -0.35784E-05   -0.45490E-05   805   0.114E-02    0.747E-04
RMM:  47    -0.416875497430E+02   -0.37957E-05   -0.46877E-05   738   0.107E-02    0.889E-04
RMM:  48    -0.416875528103E+02   -0.30673E-05   -0.39068E-05   646   0.101E-02    0.980E-04
RMM:  49    -0.416875560746E+02   -0.32644E-05   -0.40593E-05   598   0.952E-03    0.107E-03
RMM:  50    -0.416875586588E+02   -0.25841E-05   -0.33324E-05   581   0.904E-03    0.114E-03
RMM:  51    -0.416875614853E+02   -0.28265E-05   -0.35566E-05   644   0.868E-03    0.125E-03
RMM:  52    -0.416875638531E+02   -0.23678E-05   -0.30269E-05   798   0.842E-03    0.115E-03
RMM:  53    -0.416875665557E+02   -0.27026E-05   -0.33361E-05   805   0.825E-03    0.102E-03
RMM:  54    -0.416875688697E+02   -0.23140E-05   -0.29442E-05   700   0.781E-03    0.101E-03
RMM:  55    -0.416875715098E+02   -0.26401E-05   -0.32597E-05   521   0.743E-03    0.109E-03
RMM:  56    -0.416875738201E+02   -0.23103E-05   -0.29276E-05   792   0.740E-03    0.134E-03
RMM:  57    -0.416875764293E+02   -0.26092E-05   -0.31891E-05   527   0.705E-03    0.141E-03
RMM:  58    -0.416875787752E+02   -0.23459E-05   -0.29021E-05   543   0.684E-03    0.144E-03
RMM:  59    -0.416875813476E+02   -0.25724E-05   -0.31037E-05   699   0.672E-03    0.145E-03
RMM:  60    -0.416875836942E+02   -0.23466E-05   -0.28675E-05   681   0.640E-03    0.146E-03
RMM:  61    -0.416875861993E+02   -0.25051E-05   -0.30155E-05   604   0.621E-03    0.159E-03
RMM:  62    -0.416875885561E+02   -0.23568E-05   -0.28373E-05   482   0.599E-03    0.165E-03
RMM:  63    -0.416875910087E+02   -0.24527E-05   -0.29163E-05   501   0.575E-03    0.172E-03
RMM:  64    -0.416875933407E+02   -0.23320E-05   -0.27708E-05   525   0.558E-03    0.178E-03
RMM:  65    -0.416875956917E+02   -0.23510E-05   -0.27713E-05   462   0.535E-03    0.185E-03
RMM:  66    -0.416875979521E+02   -0.22604E-05   -0.26525E-05   726   0.525E-03    0.185E-03
RMM:  67    -0.416876001703E+02   -0.22182E-05   -0.25884E-05   642   0.500E-03    0.187E-03
RMM:  68    -0.416876023045E+02   -0.21342E-05   -0.24807E-05   546   0.475E-03    0.192E-03
RMM:  69    -0.416876043239E+02   -0.20194E-05   -0.23430E-05   517   0.454E-03    0.197E-03
RMM:  70    -0.416876062448E+02   -0.19209E-05   -0.22155E-05   698   0.431E-03    0.198E-03
RMM:  71    -0.416876079619E+02   -0.17171E-05   -0.19853E-05   729   0.412E-03    0.197E-03
RMM:  72    -0.416876095255E+02   -0.15636E-05   -0.18076E-05   499   0.369E-03    0.203E-03
RMM:  73    -0.416876107690E+02   -0.12434E-05   -0.14559E-05   561   0.344E-03    0.207E-03
RMM:  74    -0.416876117601E+02   -0.99113E-06   -0.11760E-05   472   0.312E-03    0.211E-03
RMM:  75    -0.416876123228E+02   -0.56275E-06   -0.71355E-06   477   0.277E-03    0.216E-03
RMM:  76    -0.416876126747E+02   -0.35191E-06   -0.45126E-06   776   0.277E-03    0.198E-03
RMM:  77    -0.416876127188E+02   -0.44090E-07   -0.14403E-06   665   0.231E-03    0.199E-03
RMM:  78    -0.416876127374E+02   -0.18543E-07   -0.87097E-07   453   0.198E-03    0.198E-03
RMM:  79    -0.416876126595E+02    0.77916E-07    0.17535E-07   457   0.198E-03    0.198E-03
RMM:  80    -0.416876126552E+02    0.42151E-08   -0.53696E-07   448   0.191E-03    0.199E-03
RMM:  81    -0.416876126009E+02    0.54306E-07    0.15135E-07   770   0.225E-03    0.179E-03
RMM:  82    -0.416876126079E+02   -0.69585E-08   -0.66718E-07   641   0.205E-03    0.174E-03
RMM:  83    -0.416876125491E+02    0.58838E-07    0.22715E-08   612   0.190E-03    0.171E-03
RMM:  84    -0.416876125673E+02   -0.18287E-07   -0.77341E-07   453   0.186E-03    0.171E-03
RMM:  85    -0.416876125243E+02    0.43068E-07   -0.14997E-07   477   0.184E-03    0.172E-03
RMM:  86    -0.416876125541E+02   -0.29849E-07   -0.87405E-07   659   0.192E-03    0.167E-03
RMM:  87    -0.416876125312E+02    0.22910E-07   -0.34667E-07   473   0.191E-03    0.166E-03
RMM:  88    -0.416876125732E+02   -0.41989E-07   -0.10034E-06   446   0.184E-03    0.166E-03
RMM:  89    -0.416876125648E+02    0.84333E-08   -0.52224E-07   456   0.187E-03    0.167E-03
RMM:  90    -0.416876126232E+02   -0.58398E-07   -0.11779E-06   468   0.181E-03    0.167E-03
RMM:  91    -0.416876126333E+02   -0.10173E-07   -0.69651E-07   452   0.186E-03    0.170E-03
RMM:  92    -0.416876127126E+02   -0.79272E-07   -0.13746E-06   463   0.185E-03    0.169E-03
RMM:  93    -0.416876127430E+02   -0.30432E-07   -0.89882E-07   433   0.181E-03    0.171E-03
RMM:  94    -0.416876128369E+02   -0.93897E-07   -0.15255E-06   559   0.188E-03    0.173E-03
RMM:  95    -0.416876128920E+02   -0.55046E-07   -0.10930E-06   440   0.183E-03    0.170E-03
RMM:  96    -0.416876130099E+02   -0.11790E-06   -0.17201E-06   778   0.213E-03    0.158E-03
RMM:  97    -0.416876130833E+02   -0.73362E-07   -0.12956E-06   542   0.176E-03    0.157E-03
RMM:  98    -0.416876132133E+02   -0.13000E-06   -0.18098E-06   533   0.183E-03    0.154E-03
RMM:  99    -0.416876133153E+02   -0.10202E-06   -0.15166E-06   637   0.193E-03    0.152E-03
RMM: 100    -0.416876134601E+02   -0.14484E-06   -0.19625E-06   431   0.176E-03    0.153E-03
RMM: 101    -0.416876135830E+02   -0.12285E-06   -0.16653E-06   675   0.188E-03    0.149E-03
RMM: 102    -0.416876137449E+02   -0.16189E-06   -0.20794E-06   449   0.178E-03    0.150E-03
RMM: 103    -0.416876138739E+02   -0.12908E-06   -0.18308E-06   469   0.178E-03    0.151E-03
RMM: 104    -0.416876140489E+02   -0.17500E-06   -0.21644E-06   425   0.168E-03    0.152E-03
RMM: 105    -0.416876141957E+02   -0.14679E-06   -0.18920E-06   424   0.164E-03    0.153E-03
RMM: 106    -0.416876143634E+02   -0.16763E-06   -0.22076E-06   633   0.178E-03    0.148E-03
RMM: 107    -0.416876145211E+02   -0.15771E-06   -0.19646E-06   477   0.162E-03    0.148E-03
RMM: 108    -0.416876147040E+02   -0.18296E-06   -0.21559E-06   504   0.162E-03    0.147E-03
RMM: 109    -0.416876148642E+02   -0.16021E-06   -0.19975E-06   450   0.164E-03    0.147E-03
RMM: 110    -0.416876150347E+02   -0.17051E-06   -0.20835E-06   415   0.151E-03    0.150E-03
RMM: 111    -0.416876152323E+02   -0.19755E-06   -0.19299E-06   761   0.198E-03    0.131E-03
RMM: 112    -0.416876154268E+02   -0.19452E-06   -0.20314E-06   741   0.174E-03    0.122E-03
RMM: 113    -0.416876155821E+02   -0.15528E-06   -0.17816E-06   534   0.147E-03    0.122E-03
RMM: 114    -0.416876157517E+02   -0.16964E-06   -0.18493E-06   577   0.151E-03    0.120E-03
RMM: 115    -0.416876158798E+02   -0.12808E-06   -0.15953E-06   617   0.143E-03    0.118E-03
RMM: 116    -0.416876163662E+02   -0.48644E-06   -0.20636E-06  1447   0.470E-03    0.217E-03
RMM: 117    -0.416876164766E+02   -0.11042E-06   -0.13243E-06   711   0.192E-03    0.249E-03
RMM: 118    -0.416876166127E+02   -0.13608E-06   -0.14012E-06   808   0.168E-03    0.273E-03
RMM: 119    -0.416876167184E+02   -0.10571E-06   -0.11377E-06   615   0.133E-03    0.276E-03
RMM: 120    -0.416876167981E+02   -0.79652E-07   -0.97490E-07   454   0.118E-03    0.273E-03
RMM: 121    -0.416876168214E+02   -0.23329E-07   -0.10495E-06  1032   0.252E-03    0.219E-03
RMM: 122    -0.416876168889E+02   -0.67468E-07   -0.71622E-07   681   0.128E-03    0.220E-03
RMM: 123    -0.416876169367E+02   -0.47762E-07   -0.61983E-07   721   0.127E-03    0.217E-03
RMM: 124    -0.416876169899E+02   -0.53227E-07   -0.54275E-07   728   0.135E-03    0.218E-03
RMM: 125    -0.416876170063E+02   -0.16441E-07   -0.33305E-07   506   0.107E-03    0.214E-03
RMM: 126    -0.416876170201E+02   -0.13822E-07   -0.32452E-07   666   0.115E-03    0.204E-03
RMM: 127    -0.416876170252E+02   -0.50954E-08   -0.19727E-07   634   0.110E-03    0.200E-03
RMM: 128    -0.416876170403E+02   -0.15013E-07   -0.14869E-07   532   0.106E-03    0.208E-03
RMM: 129    -0.416876170384E+02    0.18954E-08   -0.13547E-07   589   0.107E-03    0.203E-03
RMM: 130    -0.416876170348E+02    0.35584E-08   -0.25045E-08   470   0.935E-04
   1 F= -.41687617E+02 E0= -.41687617E+02  d E =-.515120E-21
