 vasp.6.4.3 19Mar24 (build Jul 09 2024 15:45:28) complex                        
  
 executed on             LinuxIFC date 2024.10.30  23:49:58
 running   40 mpi-ranks, on    1 nodes
 distrk:  each k-point on   40 cores,    1 groups
 distr:  one band on NCORE=  10 cores,    4 groups


--------------------------------------------------------------------------------------------------------


 INCAR:
   ENCUT = 500.000000
   SIGMA = 0.050000
   EDIFF = 1.00e-08
   ALGO = fast
   GGA = PE
   PREC = normal
   ISMEAR = 0
   NELM = 150
   NPAR = 4
   LCHARG = .TRUE.
   LWAVE = .TRUE.

 POTCAR:    PAW_PBE Ba_sv 06Sep2000               
 POTCAR:    PAW_PBE Zr_sv 04Jan2005               
 POTCAR:    PAW_PBE O 08Apr2002                   
 POTCAR:    PAW_PBE Ba_sv 06Sep2000               
   SHA256 =  db99e82e473f9273fc04f241d4a23dc413358649e2d1724098d22351b75b003b Ba_sv/POTCAR          
   COPYR  = (c) Copyright 06Sep2000 Georg Kresse                                                    
   COPYR  = This file is part of the software VASP. Any use, copying, and all other rights are regul
   COPYR  = If you do not have a valid VASP license, you may not use, copy or distribute this file. 
   VRHFIN =Ba: 5s5p6s                                                                               
   LEXCH  = PE                                                                                      
   EATOM  =   700.8560 eV,   51.5115 Ry                                                             
                                                                                                    
   TITEL  = PAW_PBE Ba_sv 06Sep2000                                                                 
   LULTRA =        F    use ultrasoft PP ?                                                          
   IUNSCR =        1    unscreen: 0-lin 1-nonlin 2-no                                               
   RPACOR =    2.400    partial core radius                                                         
   POMASS =  137.327; ZVAL   =   10.000    mass and valenz                                          
   RCORE  =    2.800    outmost cutoff radius                                                       
   RWIGS  =    3.740; RWIGS  =    1.979    wigner-seitz radius (au A)                               
   ENMAX  =  187.181; ENMIN  =  140.386 eV                                                          
   RCLOC  =    2.516    cutoff for local pot                                                        
   LCOR   =        T    correct aug charges                                                         
   LPAW   =        T    paw PP                                                                      
   EAUG   =  351.165                                                                                
   DEXC   =    0.000                                                                                
   RMAX   =    2.865    core radius for proj-oper                                                   
   RAUG   =    1.300    factor for augmentation sphere                                              
   RDEP   =    2.976    radius for radial grids                                                     
   RDEPT  =    2.289    core radius for aug-charge                                                  
                                                                                                    
   Atomic configuration                                                                             
   13 entries                                                                                       
     n  l   j            E        occ.                                                              
     1  0  0.50    -37249.5946   2.0000                                                             
     2  0  0.50     -5887.1925   2.0000                                                             
     2  1  1.50     -5278.3977   6.0000                                                             
     3  0  0.50     -1242.7293   2.0000                                                             
     3  1  1.50     -1047.6609   6.0000                                                             
     3  2  2.50      -764.6158  10.0000                                                             
     4  0  0.50      -243.8228   2.0000                                                             
     4  1  1.50      -180.9218   6.0000                                                             
     4  2  2.50       -89.6477  10.0000                                                             
     5  0  0.50       -33.6549   2.0000                                                             
     6  0  0.50        -3.2247   1.9900                                                             
     5  1  1.50       -18.7193   6.0000                                                             
     5  2  2.50        -2.0115   0.0100                                                             
   Description                                                                                      
     l       E           TYP  RCUT    TYP  RCUT                                                     
     0    -33.6549039     23  2.800                                                                 
     0     -3.2246942     23  2.800                                                                 
     1    -18.7193050     23  2.700                                                                 
     1     27.2116520     23  2.700                                                                 
     2     -2.0115002     23  2.700                                                                 
     2      0.3057420     23  2.700                                                                 
  local pseudopotential read in
  partial core-charges read in
  partial kinetic energy density read in
  atomic valenz-charges read in
  non local Contribution for L=           0  read in
    real space projection operators read in
  non local Contribution for L=           0  read in
    real space projection operators read in
  non local Contribution for L=           1  read in
    real space projection operators read in
  non local Contribution for L=           1  read in
    real space projection operators read in
  non local Contribution for L=           2  read in
    real space projection operators read in
  non local Contribution for L=           2  read in
    real space projection operators read in
    PAW grid and wavefunctions read in
 
   number of l-projection  operators is LMAX  =           6
   number of lm-projection operators is LMMAX =          18
 
 POTCAR:    PAW_PBE Zr_sv 04Jan2005               
   SHA256 =  25aed69cb10325f9d37c5c68912b61a17387d1f8e4f1d804860ffa10c8a4bf76 Zr_sv/POTCAR          
   COPYR  = (c) Copyright 04Jan2005 Georg Kresse                                                    
   COPYR  = This file is part of the software VASP. Any use, copying, and all other rights are regul
   COPYR  = If you do not have a valid VASP license, you may not use, copy or distribute this file. 
   VRHFIN =Zr: 4s4p5s4d                                                                             
   LEXCH  = PE                                                                                      
   EATOM  =  1284.2219 eV,   94.3876 Ry                                                             
                                                                                                    
   TITEL  = PAW_PBE Zr_sv 04Jan2005                                                                 
   LULTRA =        F    use ultrasoft PP ?                                                          
   IUNSCR =        1    unscreen: 0-lin 1-nonlin 2-no                                               
   RPACOR =    2.200    partial core radius                                                         
   POMASS =   91.224; ZVAL   =   12.000    mass and valenz                                          
   RCORE  =    2.500    outmost cutoff radius                                                       
   RWIGS  =    3.070; RWIGS  =    1.625    wigner-seitz radius (au A)                               
   ENMAX  =  229.898; ENMIN  =  172.424 eV                                                          
   ICORE  =        3    local potential                                                             
   LCOR   =        T    correct aug charges                                                         
   LPAW   =        T    paw PP                                                                      
   EAUG   =  461.257                                                                                
   DEXC   =    0.000                                                                                
   RMAX   =    2.561    core radius for proj-oper                                                   
   RAUG   =    1.300    factor for augmentation sphere                                              
   RDEP   =    2.597    radius for radial grids                                                     
   RDEPT  =    2.007    core radius for aug-charge                                                  
                                                                                                    
   Atomic configuration                                                                             
   11 entries                                                                                       
     n  l   j            E        occ.                                                              
     1  0  0.50    -17820.0161   2.0000                                                             
     2  0  0.50     -2467.0882   2.0000                                                             
     2  1  1.50     -2199.6095   6.0000                                                             
     3  0  0.50      -402.4863   2.0000                                                             
     3  1  1.50      -315.3675   6.0000                                                             
     3  2  2.50      -172.4472  10.0000                                                             
     4  0  0.50       -52.4146   2.0000                                                             
     5  0  0.50        -3.8421   1.0000                                                             
     4  1  1.50       -30.5054   6.0000                                                             
     4  2  2.50        -2.3341   3.0000                                                             
     4  3  2.50        -1.3606   0.0000                                                             
   Description                                                                                      
     l       E           TYP  RCUT    TYP  RCUT                                                     
     0    -52.4145962     23  2.200                                                                 
     0     -3.8421270     23  2.500                                                                 
     1    -30.5053914     23  2.200                                                                 
     1     20.4087390     23  2.200                                                                 
     2     -2.3340816     23  2.500                                                                 
     2     -0.6120942     23  2.500                                                                 
     3     -4.0817478     23  2.500                                                                 
  local pseudopotential read in
  partial core-charges read in
  partial kinetic energy density read in
  atomic valenz-charges read in
  non local Contribution for L=           0  read in
    real space projection operators read in
  non local Contribution for L=           0  read in
    real space projection operators read in
  non local Contribution for L=           1  read in
    real space projection operators read in
  non local Contribution for L=           1  read in
    real space projection operators read in
  non local Contribution for L=           2  read in
    real space projection operators read in
  non local Contribution for L=           2  read in
    real space projection operators read in
    PAW grid and wavefunctions read in
 
   number of l-projection  operators is LMAX  =           6
   number of lm-projection operators is LMMAX =          18
 
 POTCAR:    PAW_PBE O 08Apr2002                   
   SHA256 =  818f92134a0a090dccd8ba1447fa70422a3b330e708bb4f08108d8ae51209ddf O/POTCAR              
   COPYR  = (c) Copyright 08Apr2002 Georg Kresse                                                    
   COPYR  = This file is part of the software VASP. Any use, copying, and all other rights are regul
   COPYR  = If you do not have a valid VASP license, you may not use, copy or distribute this file. 
   VRHFIN =O: s2p4                                                                                  
   LEXCH  = PE                                                                                      
   EATOM  =   432.3788 eV,   31.7789 Ry                                                             
                                                                                                    
   TITEL  = PAW_PBE O 08Apr2002                                                                     
   LULTRA =        F    use ultrasoft PP ?                                                          
   IUNSCR =        1    unscreen: 0-lin 1-nonlin 2-no                                               
   RPACOR =    1.200    partial core radius                                                         
   POMASS =   16.000; ZVAL   =    6.000    mass and valenz                                          
   RCORE  =    1.520    outmost cutoff radius                                                       
   RWIGS  =    1.550; RWIGS  =    0.820    wigner-seitz radius (au A)                               
   ENMAX  =  400.000; ENMIN  =  300.000 eV                                                          
   ICORE  =        2    local potential                                                             
   LCOR   =        T    correct aug charges                                                         
   LPAW   =        T    paw PP                                                                      
   EAUG   =  605.392                                                                                
   DEXC   =    0.000                                                                                
   RMAX   =    1.553    core radius for proj-oper                                                   
   RAUG   =    1.300    factor for augmentation sphere                                              
   RDEP   =    1.550    radius for radial grids                                                     
   RDEPT  =    1.329    core radius for aug-charge                                                  
                                                                                                    
   Atomic configuration                                                                             
    4 entries                                                                                       
     n  l   j            E        occ.                                                              
     1  0  0.50      -514.6923   2.0000                                                             
     2  0  0.50       -23.9615   2.0000                                                             
     2  1  0.50        -9.0305   4.0000                                                             
     3  2  1.50        -9.5241   0.0000                                                             
   Description                                                                                      
     l       E           TYP  RCUT    TYP  RCUT                                                     
     0    -23.9615318     23  1.200                                                                 
     0     -9.5240782     23  1.200                                                                 
     1     -9.0304911     23  1.520                                                                 
     1      8.1634956     23  1.520                                                                 
     2     -9.5240782      7  1.500                                                                 
  local pseudopotential read in
  partial core-charges read in
  partial kinetic energy density read in
  kinetic energy density of atom read in
  atomic valenz-charges read in
  non local Contribution for L=           0  read in
    real space projection operators read in
  non local Contribution for L=           0  read in
    real space projection operators read in
  non local Contribution for L=           1  read in
    real space projection operators read in
  non local Contribution for L=           1  read in
    real space projection operators read in
    PAW grid and wavefunctions read in
 
   number of l-projection  operators is LMAX  =           4
   number of lm-projection operators is LMMAX =           8
 
  PAW_PBE Ba_sv 06Sep2000               :
 energy of atom  1       EATOM= -700.8560
 kinetic energy error for atom=    0.0005 (will be added to EATOM!!)
  PAW_PBE Zr_sv 04Jan2005               :
 energy of atom  2       EATOM=-1284.2219
 kinetic energy error for atom=    0.0049 (will be added to EATOM!!)
  PAW_PBE O 08Apr2002                   :
 energy of atom  3       EATOM= -432.3788
 kinetic energy error for atom=    0.0224 (will be added to EATOM!!)
 
 
 POSCAR: Ba Zr O
  positions in cartesian coordinates
  No initial velocities read in


 exchange-correlation table for PE
   RHO(1)=    0.500       N(1)  =     2000
   RHO(2)=  100.500       N(2)  =     4000

 VTST: version 4.1, (05/19/21)

 CHAIN: initializing optimizer
 
 OPT: Using VASP Dynamics algorithm
 CHAIN: Read ICHAIN            0
 
 POSCAR: Ba Zr O
  positions in cartesian coordinates
  No initial velocities read in
 


--------------------------------------------------------------------------------------------------------


 ion  position               nearest neighbor table
   1  0.000  0.000  0.000-   3 2.96   4 2.96   5 2.96   4 2.96   5 2.96   3 2.96   5 2.96   5 2.96
                             3 2.96   4 2.96   4 2.96   3 2.96   2 3.63   2 3.63   2 3.63   2 3.63
   2  0.500  0.500  0.500-   3 2.10   4 2.10   5 2.10   3 2.10   4 2.10   5 2.10   1 3.63   1 3.63
                             1 3.63   1 3.63   1 3.63   1 3.63   1 3.63   1 3.63
   3  0.500  0.500  0.000-   2 2.10   2 2.10   1 2.96   1 2.96   1 2.96   1 2.96
   4  0.500  0.000  0.500-   2 2.10   2 2.10   1 2.96   1 2.96   1 2.96   1 2.96
   5  0.000  0.500  0.500-   2 2.10   2 2.10   1 2.96   1 2.96   1 2.96   1 2.96
 
  LATTYP: Found a simple cubic cell.
 ALAT       =     4.1920000000
  
  Lattice vectors:
  
 A1 = (   4.1920000000,   0.0000000000,   0.0000000000)
 A2 = (   0.0000000000,   4.1920000000,   0.0000000000)
 A3 = (   0.0000000000,   0.0000000000,   4.1920000000)


Analysis of symmetry for initial positions (statically):
=====================================================================
 Subroutine PRICEL returns:
 Original cell was already a primitive cell.
 

 Routine SETGRP: Setting up the symmetry group for a 
 simple cubic supercell.


 Subroutine GETGRP returns: Found 48 space group operations
 (whereof 48 operations were pure point group operations)
 out of a pool of 48 trial point group operations.


The static configuration has the point symmetry O_h .


Analysis of symmetry for dynamics (positions and initial velocities):
=====================================================================
 Subroutine PRICEL returns:
 Original cell was already a primitive cell.
 

 Routine SETGRP: Setting up the symmetry group for a 
 simple cubic supercell.


 Subroutine GETGRP returns: Found 48 space group operations
 (whereof 48 operations were pure point group operations)
 out of a pool of 48 trial point group operations.


The dynamic configuration has the point symmetry O_h .


 Subroutine INISYM returns: Found 48 space group operations
 (whereof 48 operations are pure point group operations),
 and found     1 'primitive' translations


----------------------------------------------------------------------------------------

                                     Primitive cell                                     

  volume of cell :      73.6654

  direct lattice vectors                    reciprocal lattice vectors
     4.192000000  0.000000000  0.000000000     0.238549618  0.000000000  0.000000000
     0.000000000  4.192000000  0.000000000     0.000000000  0.238549618  0.000000000
     0.000000000  0.000000000  4.192000000     0.000000000  0.000000000  0.238549618

  length of vectors
     4.192000000  4.192000000  4.192000000     0.238549618  0.238549618  0.238549618

  position of ions in fractional coordinates (direct lattice)
     0.000000000  0.000000000  0.000000000
     0.500000000  0.500000000  0.500000000
     0.500000000  0.500000000  0.000000000
     0.500000000  0.000000000  0.500000000
     0.000000000  0.500000000  0.500000000

  ion indices of the primitive-cell ions
   primitive index   ion index
                 1           1
                 2           2
                 3           3
                 4           4
                 5           5

----------------------------------------------------------------------------------------

 
 
 KPOINTS: KPOINTS created by Atomic Simulation Env

Automatic generation of k-mesh.
 Grid dimensions read from file:
 generate k-points for:    8    8    8

 Generating k-lattice:

  Cartesian coordinates                     Fractional coordinates (reciprocal lattice)
     0.029818702  0.000000000  0.000000000     0.125000000  0.000000000  0.000000000
     0.000000000  0.029818702  0.000000000     0.000000000  0.125000000  0.000000000
     0.000000000  0.000000000  0.029818702     0.000000000  0.000000000  0.125000000

  Length of vectors
     0.029818702  0.029818702  0.029818702

  Shift w.r.t. Gamma in fractional coordinates (k-lattice)
     0.500000000  0.500000000  0.500000000

 
 Subroutine IBZKPT returns following result:
 ===========================================
 
 Found     20 irreducible k-points:
 
 Following reciprocal coordinates:
            Coordinates               Weight
  0.062500  0.062500  0.062500      8.000000
  0.187500  0.062500  0.062500     24.000000
  0.312500  0.062500  0.062500     24.000000
  0.437500  0.062500  0.062500     24.000000
  0.187500  0.187500  0.062500     24.000000
  0.312500  0.187500  0.062500     48.000000
  0.437500  0.187500  0.062500     48.000000
  0.312500  0.312500  0.062500     24.000000
  0.437500  0.312500  0.062500     48.000000
  0.437500  0.437500  0.062500     24.000000
  0.187500  0.187500  0.187500      8.000000
  0.312500  0.187500  0.187500     24.000000
  0.437500  0.187500  0.187500     24.000000
  0.312500  0.312500  0.187500     24.000000
  0.437500  0.312500  0.187500     48.000000
  0.437500  0.437500  0.187500     24.000000
  0.312500  0.312500  0.312500      8.000000
  0.437500  0.312500  0.312500     24.000000
  0.437500  0.437500  0.312500     24.000000
  0.437500  0.437500  0.437500      8.000000
 
 Following cartesian coordinates:
            Coordinates               Weight
  0.014909  0.014909  0.014909      8.000000
  0.044728  0.014909  0.014909     24.000000
  0.074547  0.014909  0.014909     24.000000
  0.104365  0.014909  0.014909     24.000000
  0.044728  0.044728  0.014909     24.000000
  0.074547  0.044728  0.014909     48.000000
  0.104365  0.044728  0.014909     48.000000
  0.074547  0.074547  0.014909     24.000000
  0.104365  0.074547  0.014909     48.000000
  0.104365  0.104365  0.014909     24.000000
  0.044728  0.044728  0.044728      8.000000
  0.074547  0.044728  0.044728     24.000000
  0.104365  0.044728  0.044728     24.000000
  0.074547  0.074547  0.044728     24.000000
  0.104365  0.074547  0.044728     48.000000
  0.104365  0.104365  0.044728     24.000000
  0.074547  0.074547  0.074547      8.000000
  0.104365  0.074547  0.074547     24.000000
  0.104365  0.104365  0.074547     24.000000
  0.104365  0.104365  0.104365      8.000000
 


--------------------------------------------------------------------------------------------------------




 Dimension of arrays:
   k-points           NKPTS =     20   k-points in BZ     NKDIM =     20   number of bands    NBANDS=     24
   number of dos      NEDOS =    301   number of ions     NIONS =      5
   non local maximal  LDIM  =      6   non local SUM 2l+1 LMDIM =     18
   total plane-waves  NPLWV =  13824
   max r-space proj   IRMAX =      1   max aug-charges    IRDMAX=  11945
   dimension x,y,z NGX =    24 NGY =   24 NGZ =   24
   dimension x,y,z NGXF=    48 NGYF=   48 NGZF=   48
   support grid    NGXF=    48 NGYF=   48 NGZF=   48
   ions per type =               1   1   3
   NGX,Y,Z   is equivalent  to a cutoff of   9.52,  9.52,  9.52 a.u.
   NGXF,Y,Z  is equivalent  to a cutoff of  19.04, 19.04, 19.04 a.u.

 SYSTEM =  unknown system                          
 POSCAR =  Ba Zr O                                 

 Startparameter for this run:
   NWRITE =      2    write-flag & timer
   PREC   = normal    normal or accurate (medium, high low for compatibility)
   ISTART =      0    job   : 0-new  1-cont  2-samecut
   ICHARG =      2    charge: 1-file 2-atom 10-const
   ISPIN  =      1    spin polarized calculation?
   LNONCOLLINEAR =      F non collinear calculations
   LSORBIT =      F    spin-orbit coupling
   INIWAV =      1    electr: 0-lowe 1-rand  2-diag
   LASPH  =      F    aspherical Exc in radial PAW
 Electronic Relaxation 1
   ENCUT  =  500.0 eV  36.75 Ry    6.06 a.u.   7.64  7.64  7.64*2*pi/ulx,y,z
   ENINI  =  500.0     initial cutoff
   ENAUG  =  605.4 eV  augmentation charge cutoff
   NELM   =    150;   NELMIN=  2; NELMDL= -5     # of ELM steps 
   EDIFF  = 0.1E-07   stopping-criterion for ELM
   LREAL  =      F    real-space projection
   NLSPLINE    = F    spline interpolate recip. space projectors
   LCOMPAT=      F    compatible to vasp.4.4
   GGA_COMPAT  = T    GGA compatible to vasp.4.4-vasp.4.6
   LMAXPAW     = -100 max onsite density
   LMAXMIX     =    2 max onsite mixed and CHGCAR
   VOSKOWN=      0    Vosko Wilk Nusair interpolation
   ROPT   =    0.00000   0.00000   0.00000
 Ionic relaxation
   EDIFFG = 0.1E-06   stopping-criterion for IOM
   NSW    =      0    number of steps for IOM
   NBLOCK =      1;   KBLOCK =      1    inner block; outer block 
   IBRION =     -1    ionic relax: 0-MD 1-quasi-New 2-CG
   NFREE  =      0    steps in history (QN), initial steepest desc. (CG)
   ISIF   =      2    stress and relaxation
   IWAVPR =     10    prediction:  0-non 1-charg 2-wave 3-comb
   ISYM   =      2    0-nonsym 1-usesym 2-fastsym
   LCORR  =      T    Harris-Foulkes like correction to forces

   POTIM  = 0.5000    time-step for ionic-motion
   TEIN   =    0.0    initial temperature
   TEBEG  =    0.0;   TEEND  =   0.0 temperature during run
   SMASS  =  -3.00    Nose mass-parameter (am)
   estimated Nose-frequenzy (Omega)   =  0.10E-29 period in steps = 0.13E+47 mass=  -0.402E-27a.u.
   SCALEE = 1.0000    scale energy and forces
   NPACO  =    256;   APACO  = 10.0  distance and # of slots for P.C.
   PSTRESS=    0.0 pullay stress

  Mass of Ions in am
   POMASS = 137.33 91.22 16.00
  Ionic Valenz
   ZVAL   =  10.00 12.00  6.00
  Atomic Wigner-Seitz radii
   RWIGS  =  -1.00 -1.00 -1.00
  virtual crystal weights 
   VCA    =   1.00  1.00  1.00
   NELECT =      40.0000    total number of electrons
   NUPDOWN=      -1.0000    fix difference up-down

 DOS related values:
   EMIN   =  10.00;   EMAX   =-10.00  energy-range for DOS
   EFERMI =   0.00;   METHOD = LEGACY      
   ISMEAR =     0;   SIGMA  =   0.05  broadening in eV -4-tet -1-fermi 0-gaus

 Electronic relaxation 2 (details)
   IALGO  =     68    algorithm
   LDIAG  =      T    sub-space diagonalisation (order eigenvalues)
   LSUBROT=      F    optimize rotation matrix (better conditioning)
   TURBO    =      0    0=normal 1=particle mesh
   IRESTART =      0    0=no restart 2=restart with 2 vectors
   NREBOOT  =      0    no. of reboots
   NMIN     =      0    reboot dimension
   EREF     =   0.00    reference energy to select bands
   IMIX   =      4    mixing-type and parameters
     AMIX     =   0.40;   BMIX     =  1.00
     AMIX_MAG =   1.60;   BMIX_MAG =  1.00
     AMIN     =   0.10
     WC   =   100.;   INIMIX=   1;  MIXPRE=   1;  MAXMIX= -45

 Intra band minimization:
   WEIMIN = 0.0000     energy-eigenvalue tresh-hold
   EBREAK =  0.10E-09  absolut break condition
   DEPER  =   0.30     relativ break condition  

   TIME   =   0.40     timestep for ELM

  volume/ion in A,a.u.               =      14.73        99.42
  Fermi-wavevector in a.u.,A,eV,Ry     =   1.335591  2.523901 24.270125  1.783804
  Thomas-Fermi vector in A             =   2.464284
 
 Write flags
   LWAVE        =      T    write WAVECAR
   LDOWNSAMPLE  =      F    k-point downsampling of WAVECAR
   LCHARG       =      T    write CHGCAR
   LVTOT        =      F    write LOCPOT, total local potential
   LVHAR        =      F    write LOCPOT, Hartree potential only
   WRT_POTENTIAL= false  ! write potential to hdf5 file
   LELF         =      F    write electronic localiz. function (ELF)
   LORBIT       =      0    0 simple, 1 ext, 2 COOP (PROOUT), +10 PAW based schemes


 Dipole corrections
   LMONO      =      F    monopole corrections only (constant potential shift)
   LDIPOL     =      F    correct potential (dipole corrections)
   IDIPOL     =      0    1-x, 2-y, 3-z, 4-all directions 
   EPSILON    =  1.0000000 bulk dielectric constant
   LVACPOTAV  =      F  vacuum potentials using an averaging scheme for the charge density
   VACPOTFLAT =  0.1000000 required flatness to determine vacuum potential
 Exchange correlation treatment:
   GGA     = PE    functional components
   XC_C    = 1    coefficients multiplying the functional components
   LIBXC   =     F    Libxc                    
   VOSKOWN =     0    Vosko Wilk Nusair interpolation
   LHFCALC =     F    Hartree Fock is set to
   LHFONE  =     F    Hartree Fock one center treatment
   AEXX    =    0.0000 exact exchange contribution

 Parameters of functionals:
   PE:
     No parameter
 
 Van der Waals corrections
   IVDW    =     0    specifies the selected vdW correction

 Linear response parameters
   LEPSILON=     F    determine dielectric tensor
   LRPA    =     F    only Hartree local field effects (RPA)
   LNABLA  =     F    use nabla operator in PAW spheres
   LVEL    =     F    velocity operator in full k-point grid
   CSHIFT  =0.1000    complex shift for real part using Kramers Kronig
   OMEGAMAX=  -1.0    maximum frequency
   DEG_THRESHOLD= 0.2000000E-02 threshold for treating states as degnerate
   RTIME   =   -0.100 relaxation time in fs
  (WPLASMAI=    0.000 imaginary part of plasma frequency in eV, 0.658/RTIME)
   DFIELD  = 0.0000000 0.0000000 0.0000000 field for delta impulse in time
 
  Optional k-point grid parameters
   LKPOINTS_OPT  =     F    use optional k-point grid
   KPOINTS_OPT_MODE=     1    mode for optional k-point grid
 
 Orbital magnetization related:
   ORBITALMAG=     F  switch on orbital magnetization
   LCHIMAG   =     F  perturbation theory with respect to B field
   DQ        =  0.001000  dq finite difference perturbation B field
   LLRAUG    =     F  two centre corrections for induced B field
   LBONE     =     F  B-component reconstruction in AE one-centre
   LVGVCALC  =     T  calculate vGv susceptibility
   LVGVAPPL  =     F  apply vGv susceptibility instead of pGv for G=0

 Random number generation:
   RANDOM_GENERATOR = DEFAULT
   PCG_SEED         = not used


--------------------------------------------------------------------------------------------------------


 Static calculation
 charge density and potential will be updated during run
 non-spin polarized calculation
 RMM-DIIS sequential band-by-band and
  variant of blocked Davidson during initial phase
 perform sub-space diagonalisation
    before iterative eigenvector-optimisation
 modified Broyden-mixing scheme, WC =      100.0
 initial mixing is a Kerker type mixing with AMIX =  0.4000 and BMIX =      1.0000
 Hartree-type preconditioning will be used
 using additional bands            4
 reciprocal scheme for non local part
 use partial core corrections
 calculate Harris-corrections to forces 
   (improved forces if not selfconsistent)
 use gradient corrections 
 use of overlap-Matrix (Vanderbilt PP)
 Gauss-broadening in eV      SIGMA  =   0.05


--------------------------------------------------------------------------------------------------------


  energy-cutoff  :      500.00
  volume of cell :       73.67
      direct lattice vectors                 reciprocal lattice vectors
     4.192000000  0.000000000  0.000000000     0.238549618  0.000000000  0.000000000
     0.000000000  4.192000000  0.000000000     0.000000000  0.238549618  0.000000000
     0.000000000  0.000000000  4.192000000     0.000000000  0.000000000  0.238549618

  length of vectors
     4.192000000  4.192000000  4.192000000     0.238549618  0.238549618  0.238549618


 
 k-points in units of 2pi/SCALE and weight: KPOINTS created by Atomic Simulation Env
   0.01490935  0.01490935  0.01490935       0.016
   0.04472805  0.01490935  0.01490935       0.047
   0.07454676  0.01490935  0.01490935       0.047
   0.10436546  0.01490935  0.01490935       0.047
   0.04472805  0.04472805  0.01490935       0.047
   0.07454676  0.04472805  0.01490935       0.094
   0.10436546  0.04472805  0.01490935       0.094
   0.07454676  0.07454676  0.01490935       0.047
   0.10436546  0.07454676  0.01490935       0.094
   0.10436546  0.10436546  0.01490935       0.047
   0.04472805  0.04472805  0.04472805       0.016
   0.07454676  0.04472805  0.04472805       0.047
   0.10436546  0.04472805  0.04472805       0.047
   0.07454676  0.07454676  0.04472805       0.047
   0.10436546  0.07454676  0.04472805       0.094
   0.10436546  0.10436546  0.04472805       0.047
   0.07454676  0.07454676  0.07454676       0.016
   0.10436546  0.07454676  0.07454676       0.047
   0.10436546  0.10436546  0.07454676       0.047
   0.10436546  0.10436546  0.10436546       0.016
 
 k-points in reciprocal lattice and weights: KPOINTS created by Atomic Simulation Env
   0.06250000  0.06250000  0.06250000       0.016
   0.18750000  0.06250000  0.06250000       0.047
   0.31250000  0.06250000  0.06250000       0.047
   0.43750000  0.06250000  0.06250000       0.047
   0.18750000  0.18750000  0.06250000       0.047
   0.31250000  0.18750000  0.06250000       0.094
   0.43750000  0.18750000  0.06250000       0.094
   0.31250000  0.31250000  0.06250000       0.047
   0.43750000  0.31250000  0.06250000       0.094
   0.43750000  0.43750000  0.06250000       0.047
   0.18750000  0.18750000  0.18750000       0.016
   0.31250000  0.18750000  0.18750000       0.047
   0.43750000  0.18750000  0.18750000       0.047
   0.31250000  0.31250000  0.18750000       0.047
   0.43750000  0.31250000  0.18750000       0.094
   0.43750000  0.43750000  0.18750000       0.047
   0.31250000  0.31250000  0.31250000       0.016
   0.43750000  0.31250000  0.31250000       0.047
   0.43750000  0.43750000  0.31250000       0.047
   0.43750000  0.43750000  0.43750000       0.016
 
 position of ions in fractional coordinates (direct lattice) 
   0.00000000  0.00000000  0.00000000
   0.50000000  0.50000000  0.50000000
   0.50000000  0.50000000  0.00000000
   0.50000000  0.00000000  0.50000000
   0.00000000  0.50000000  0.50000000
 
 position of ions in cartesian coordinates  (Angst):
   0.00000000  0.00000000  0.00000000
   2.09600000  2.09600000  2.09600000
   2.09600000  2.09600000  0.00000000
   2.09600000  0.00000000  2.09600000
   0.00000000  2.09600000  2.09600000
 


--------------------------------------------------------------------------------------------------------


 k-point     1 :   0.0625 0.0625 0.0625  plane waves:    1872
 k-point     2 :   0.1875 0.0625 0.0625  plane waves:    1863
 k-point     3 :   0.3125 0.0625 0.0625  plane waves:    1879
 k-point     4 :   0.4375 0.0625 0.0625  plane waves:    1872
 k-point     5 :   0.1875 0.1875 0.0625  plane waves:    1878
 k-point     6 :   0.3125 0.1875 0.0625  plane waves:    1873
 k-point     7 :   0.4375 0.1875 0.0625  plane waves:    1871
 k-point     8 :   0.3125 0.3125 0.0625  plane waves:    1868
 k-point     9 :   0.4375 0.3125 0.0625  plane waves:    1872
 k-point    10 :   0.4375 0.4375 0.0625  plane waves:    1874
 k-point    11 :   0.1875 0.1875 0.1875  plane waves:    1881
 k-point    12 :   0.3125 0.1875 0.1875  plane waves:    1872
 k-point    13 :   0.4375 0.1875 0.1875  plane waves:    1868
 k-point    14 :   0.3125 0.3125 0.1875  plane waves:    1865
 k-point    15 :   0.4375 0.3125 0.1875  plane waves:    1868
 k-point    16 :   0.4375 0.4375 0.1875  plane waves:    1859
 k-point    17 :   0.3125 0.3125 0.3125  plane waves:    1857
 k-point    18 :   0.4375 0.3125 0.3125  plane waves:    1860
 k-point    19 :   0.4375 0.4375 0.3125  plane waves:    1863
 k-point    20 :   0.4375 0.4375 0.4375  plane waves:    1880

 maximum and minimum number of plane-waves per node :       207      172

 maximum number of plane-waves:      1881
 maximum index in each direction: 
   IXMAX=    7   IYMAX=    7   IZMAX=    7
   IXMIN=   -8   IYMIN=   -8   IZMIN=   -8


 parallel 3D FFT for wavefunctions:
    minimum data exchange during FFTs selected (reduces bandwidth)
 parallel 3D FFT for charge:
    minimum data exchange during FFTs selected (reduces bandwidth)


 total amount of memory used by VASP MPI-rank0    32844. kBytes
=======================================================================

   base      :      30000. kBytes
   nonl-proj :       1813. kBytes
   fftplans  :        205. kBytes
   grid      :        374. kBytes
   one-center:         15. kBytes
   wavefun   :        437. kBytes
 
     INWAV:  cpu time      0.0000: real time      0.0000
 Broyden mixing: mesh for mixing (old mesh)
   NGX = 15   NGY = 15   NGZ = 15
  (NGX  = 48   NGY  = 48   NGZ  = 48)
  gives a total of   3375 points

 initial charge density was supplied:
 charge density of overlapping atoms calculated
 number of electron      40.0000000 magnetization 
 keeping initial charge density in first step


--------------------------------------------------------------------------------------------------------


 Maximum index for augmentation-charges         1030 (set IRDMAX)


--------------------------------------------------------------------------------------------------------


 First call to EWALD:  gamma=   0.423
 Maximum number of real-space cells 3x 3x 3
 Maximum number of reciprocal cells 3x 3x 3

    FEWALD:  cpu time      0.0016: real time      0.0016


--------------------------------------- Ionic step        1  -------------------------------------------




--------------------------------------- Iteration      1(   1)  ---------------------------------------


    POTLOK:  cpu time      0.0068: real time      0.0089
    SETDIJ:  cpu time      0.0031: real time      0.0031
     EDDAV:  cpu time      0.1522: real time      0.1952
       DOS:  cpu time      0.0010: real time      0.0010
    --------------------------------------------
      LOOP:  cpu time      0.1631: real time      0.2081

 eigenvalue-minimisations  :   960
 total energy-change (2. order) : 0.3232422E+03  (-0.2207665E+04)
 number of electron      40.0000000 magnetization 
 augmentation part       40.0000000 magnetization 

 Free energy of the ion-electron system (eV)
  ---------------------------------------------------
  alpha Z        PSCENC =       240.34259355
  Ewald energy   TEWEN  =     -2693.37944630
  -Hartree energ DENC   =      -682.79388567
  -exchange      EXHF   =         0.00000000
  -V(xc)+E(xc)   XCENC  =       159.34886954
  PAW double counting   =      2561.05225630    -2544.85325127
  entropy T*S    EENTRO =        -0.00405893
  eigenvalues    EBANDS =         1.38733424
  atomic energy  EATOM  =      3282.14180256
  Solvation  Ediel_sol  =         0.00000000
  ---------------------------------------------------
  free energy    TOTEN  =       323.24221403 eV

  energy without entropy =      323.24627295  energy(sigma->0) =      323.24424349


--------------------------------------------------------------------------------------------------------




--------------------------------------- Iteration      1(   2)  ---------------------------------------


     EDDAV:  cpu time      0.1403: real time      0.1423
       DOS:  cpu time      0.0002: real time      0.0002
    --------------------------------------------
      LOOP:  cpu time      0.1405: real time      0.1425

 eigenvalue-minimisations  :  1272
 total energy-change (2. order) :-0.3526707E+03  (-0.3459519E+03)
 number of electron      40.0000000 magnetization 
 augmentation part       40.0000000 magnetization 

 Free energy of the ion-electron system (eV)
  ---------------------------------------------------
  alpha Z        PSCENC =       240.34259355
  Ewald energy   TEWEN  =     -2693.37944630
  -Hartree energ DENC   =      -682.79388567
  -exchange      EXHF   =         0.00000000
  -V(xc)+E(xc)   XCENC  =       159.34886954
  PAW double counting   =      2561.05225630    -2544.85325127
  entropy T*S    EENTRO =        -0.00000000
  eigenvalues    EBANDS =      -351.28747018
  atomic energy  EATOM  =      3282.14180256
  Solvation  Ediel_sol  =         0.00000000
  ---------------------------------------------------
  free energy    TOTEN  =       -29.42853146 eV

  energy without entropy =      -29.42853146  energy(sigma->0) =      -29.42853146


--------------------------------------------------------------------------------------------------------




--------------------------------------- Iteration      1(   3)  ---------------------------------------


     EDDAV:  cpu time      0.1517: real time      0.1596
       DOS:  cpu time      0.0002: real time      0.0002
    --------------------------------------------
      LOOP:  cpu time      0.1519: real time      0.1598

 eigenvalue-minimisations  :  1520
 total energy-change (2. order) :-0.1927500E+02  (-0.1925789E+02)
 number of electron      40.0000000 magnetization 
 augmentation part       40.0000000 magnetization 

 Free energy of the ion-electron system (eV)
  ---------------------------------------------------
  alpha Z        PSCENC =       240.34259355
  Ewald energy   TEWEN  =     -2693.37944630
  -Hartree energ DENC   =      -682.79388567
  -exchange      EXHF   =         0.00000000
  -V(xc)+E(xc)   XCENC  =       159.34886954
  PAW double counting   =      2561.05225630    -2544.85325127
  entropy T*S    EENTRO =        -0.00000000
  eigenvalues    EBANDS =      -370.56247167
  atomic energy  EATOM  =      3282.14180256
  Solvation  Ediel_sol  =         0.00000000
  ---------------------------------------------------
  free energy    TOTEN  =       -48.70353295 eV

  energy without entropy =      -48.70353295  energy(sigma->0) =      -48.70353295


--------------------------------------------------------------------------------------------------------




--------------------------------------- Iteration      1(   4)  ---------------------------------------


     EDDAV:  cpu time      0.1401: real time      0.1482
       DOS:  cpu time      0.0002: real time      0.0002
    --------------------------------------------
      LOOP:  cpu time      0.1403: real time      0.1484

 eigenvalue-minimisations  :  1400
 total energy-change (2. order) :-0.5465547E+00  (-0.5464517E+00)
 number of electron      40.0000000 magnetization 
 augmentation part       40.0000000 magnetization 

 Free energy of the ion-electron system (eV)
  ---------------------------------------------------
  alpha Z        PSCENC =       240.34259355
  Ewald energy   TEWEN  =     -2693.37944630
  -Hartree energ DENC   =      -682.79388567
  -exchange      EXHF   =         0.00000000
  -V(xc)+E(xc)   XCENC  =       159.34886954
  PAW double counting   =      2561.05225630    -2544.85325127
  entropy T*S    EENTRO =        -0.00000000
  eigenvalues    EBANDS =      -371.10902637
  atomic energy  EATOM  =      3282.14180256
  Solvation  Ediel_sol  =         0.00000000
  ---------------------------------------------------
  free energy    TOTEN  =       -49.25008766 eV

  energy without entropy =      -49.25008766  energy(sigma->0) =      -49.25008766


--------------------------------------------------------------------------------------------------------




--------------------------------------- Iteration      1(   5)  ---------------------------------------


     EDDAV:  cpu time      0.1359: real time      0.1439
       DOS:  cpu time      0.0002: real time      0.0002
    CHARGE:  cpu time      0.0071: real time      0.0071
    MIXING:  cpu time      0.0018: real time      0.0018
    --------------------------------------------
      LOOP:  cpu time      0.1450: real time      0.1530

 eigenvalue-minimisations  :  1368
 total energy-change (2. order) :-0.1087248E-01  (-0.1087212E-01)
 number of electron      40.0000132 magnetization 
 augmentation part        1.1341184 magnetization 

 Broyden mixing:
  rms(total) = 0.28875E+01    rms(broyden)= 0.28873E+01
  rms(prec ) = 0.45993E+01
  weight for this iteration     100.00

 Free energy of the ion-electron system (eV)
  ---------------------------------------------------
  alpha Z        PSCENC =       240.34259355
  Ewald energy   TEWEN  =     -2693.37944630
  -Hartree energ DENC   =      -682.79388567
  -exchange      EXHF   =         0.00000000
  -V(xc)+E(xc)   XCENC  =       159.34886954
  PAW double counting   =      2561.05225630    -2544.85325127
  entropy T*S    EENTRO =        -0.00000000
  eigenvalues    EBANDS =      -371.11989885
  atomic energy  EATOM  =      3282.14180256
  Solvation  Ediel_sol  =         0.00000000
  ---------------------------------------------------
  free energy    TOTEN  =       -49.26096014 eV

  energy without entropy =      -49.26096014  energy(sigma->0) =      -49.26096014


--------------------------------------------------------------------------------------------------------




--------------------------------------- Iteration      1(   6)  ---------------------------------------


    POTLOK:  cpu time      0.0044: real time      0.0106
    SETDIJ:  cpu time      0.0018: real time      0.0018
    EDDIAG:  cpu time      0.0398: real time      0.0399
  RMM-DIIS:  cpu time      0.0323: real time      0.0333
    ORTHCH:  cpu time      0.0036: real time      0.0036
       DOS:  cpu time      0.0002: real time      0.0002
    CHARGE:  cpu time      0.0054: real time      0.0054
    MIXING:  cpu time      0.0010: real time      0.0043
    --------------------------------------------
      LOOP:  cpu time      0.0885: real time      0.0992

 eigenvalue-minimisations  :   988
 total energy-change (2. order) : 0.7923508E+01  (-0.3825745E+01)
 number of electron      40.0000106 magnetization 
 augmentation part        0.6831871 magnetization 

 Broyden mixing:
  rms(total) = 0.12878E+01    rms(broyden)= 0.12875E+01
  rms(prec ) = 0.14525E+01
  weight for this iteration     100.00

 eigenvalues of (default mixing * dielectric matrix)
  average eigenvalue GAMMA=   1.2469
  1.2469

 Free energy of the ion-electron system (eV)
  ---------------------------------------------------
  alpha Z        PSCENC =       240.34259355
  Ewald energy   TEWEN  =     -2693.37944630
  -Hartree energ DENC   =      -721.14628291
  -exchange      EXHF   =         0.00000000
  -V(xc)+E(xc)   XCENC  =       162.45250660
  PAW double counting   =      3303.73864155    -3292.20364260
  entropy T*S    EENTRO =        -0.00000000
  eigenvalues    EBANDS =      -323.28362487
  atomic energy  EATOM  =      3282.14180256
  Solvation  Ediel_sol  =         0.00000000
  ---------------------------------------------------
  free energy    TOTEN  =       -41.33745242 eV

  energy without entropy =      -41.33745242  energy(sigma->0) =      -41.33745242


--------------------------------------------------------------------------------------------------------




--------------------------------------- Iteration      1(   7)  ---------------------------------------


    POTLOK:  cpu time      0.0032: real time      0.0104
    SETDIJ:  cpu time      0.0015: real time      0.0015
    EDDIAG:  cpu time      0.0380: real time      0.0381
  RMM-DIIS:  cpu time      0.0422: real time      0.0423
    ORTHCH:  cpu time      0.0037: real time      0.0037
       DOS:  cpu time      0.0002: real time      0.0002
    CHARGE:  cpu time      0.0052: real time      0.0052
    MIXING:  cpu time      0.0004: real time      0.0016
    --------------------------------------------
      LOOP:  cpu time      0.0944: real time      0.1030

 eigenvalue-minimisations  :  1369
 total energy-change (2. order) :-0.3661615E+00  (-0.5741864E+00)
 number of electron      40.0000103 magnetization 
 augmentation part        0.5630745 magnetization 

 Broyden mixing:
  rms(total) = 0.69569E+00    rms(broyden)= 0.69566E+00
  rms(prec ) = 0.82467E+00
  weight for this iteration     100.00

 eigenvalues of (default mixing * dielectric matrix)
  average eigenvalue GAMMA=   1.6335
  1.1336  2.1334

 Free energy of the ion-electron system (eV)
  ---------------------------------------------------
  alpha Z        PSCENC =       240.34259355
  Ewald energy   TEWEN  =     -2693.37944630
  -Hartree energ DENC   =      -714.64655471
  -exchange      EXHF   =         0.00000000
  -V(xc)+E(xc)   XCENC  =       162.06153300
  PAW double counting   =      3817.62552364    -3806.69746914
  entropy T*S    EENTRO =        -0.00000000
  eigenvalues    EBANDS =      -329.15159647
  atomic energy  EATOM  =      3282.14180256
  Solvation  Ediel_sol  =         0.00000000
  ---------------------------------------------------
  free energy    TOTEN  =       -41.70361387 eV

  energy without entropy =      -41.70361387  energy(sigma->0) =      -41.70361387


--------------------------------------------------------------------------------------------------------




--------------------------------------- Iteration      1(   8)  ---------------------------------------


    POTLOK:  cpu time      0.0032: real time      0.0110
    SETDIJ:  cpu time      0.0015: real time      0.0015
    EDDIAG:  cpu time      0.0444: real time      0.0445
  RMM-DIIS:  cpu time      0.0404: real time      0.0405
    ORTHCH:  cpu time      0.0037: real time      0.0037
       DOS:  cpu time      0.0004: real time      0.0004
    CHARGE:  cpu time      0.0059: real time      0.0059
    MIXING:  cpu time      0.0005: real time      0.0013
    --------------------------------------------
      LOOP:  cpu time      0.1000: real time      0.1088

 eigenvalue-minimisations  :  1246
 total energy-change (2. order) :-0.1584288E-01  (-0.1448957E+00)
 number of electron      40.0000108 magnetization 
 augmentation part        0.5934729 magnetization 

 Broyden mixing:
  rms(total) = 0.18576E+00    rms(broyden)= 0.18565E+00
  rms(prec ) = 0.39351E+00
  weight for this iteration     100.00

 eigenvalues of (default mixing * dielectric matrix)
  average eigenvalue GAMMA=   1.4103
  2.2293  1.0007  1.0007

 Free energy of the ion-electron system (eV)
  ---------------------------------------------------
  alpha Z        PSCENC =       240.34259355
  Ewald energy   TEWEN  =     -2693.37944630
  -Hartree energ DENC   =      -703.38711827
  -exchange      EXHF   =         0.00000000
  -V(xc)+E(xc)   XCENC  =       161.29040483
  PAW double counting   =      4454.86421714    -4443.27159440
  entropy T*S    EENTRO =        -0.00000000
  eigenvalues    EBANDS =      -340.32031585
  atomic energy  EATOM  =      3282.14180256
  Solvation  Ediel_sol  =         0.00000000
  ---------------------------------------------------
  free energy    TOTEN  =       -41.71945674 eV

  energy without entropy =      -41.71945674  energy(sigma->0) =      -41.71945674


--------------------------------------------------------------------------------------------------------




--------------------------------------- Iteration      1(   9)  ---------------------------------------


    POTLOK:  cpu time      0.0041: real time      0.0114
    SETDIJ:  cpu time      0.0017: real time      0.0017
    EDDIAG:  cpu time      0.0385: real time      0.0385
  RMM-DIIS:  cpu time      0.0424: real time      0.0425
    ORTHCH:  cpu time      0.0037: real time      0.0037
       DOS:  cpu time      0.0004: real time      0.0004
    CHARGE:  cpu time      0.0052: real time      0.0052
    MIXING:  cpu time      0.0002: real time      0.0002
    --------------------------------------------
      LOOP:  cpu time      0.0963: real time      0.1039

 eigenvalue-minimisations  :  1364
 total energy-change (2. order) : 0.5739408E-01  (-0.4725982E-01)
 number of electron      40.0000105 magnetization 
 augmentation part        0.5279900 magnetization 

 Broyden mixing:
  rms(total) = 0.50871E-01    rms(broyden)= 0.50837E-01
  rms(prec ) = 0.88042E-01
  weight for this iteration     100.00

 eigenvalues of (default mixing * dielectric matrix)
  average eigenvalue GAMMA=   1.3473
  2.1140  1.2716  1.0018  1.0018

 Free energy of the ion-electron system (eV)
  ---------------------------------------------------
  alpha Z        PSCENC =       240.34259355
  Ewald energy   TEWEN  =     -2693.37944630
  -Hartree energ DENC   =      -707.94004175
  -exchange      EXHF   =         0.00000000
  -V(xc)+E(xc)   XCENC  =       161.63679726
  PAW double counting   =      4548.05401285    -4536.63419049
  entropy T*S    EENTRO =        -0.00000000
  eigenvalues    EBANDS =      -335.88359035
  atomic energy  EATOM  =      3282.14180256
  Solvation  Ediel_sol  =         0.00000000
  ---------------------------------------------------
  free energy    TOTEN  =       -41.66206267 eV

  energy without entropy =      -41.66206267  energy(sigma->0) =      -41.66206267


--------------------------------------------------------------------------------------------------------




--------------------------------------- Iteration      1(  10)  ---------------------------------------


    POTLOK:  cpu time      0.0031: real time      0.0106
    SETDIJ:  cpu time      0.0015: real time      0.0015
    EDDIAG:  cpu time      0.0378: real time      0.0379
  RMM-DIIS:  cpu time      0.0474: real time      0.0475
    ORTHCH:  cpu time      0.0036: real time      0.0036
       DOS:  cpu time      0.0002: real time      0.0002
    CHARGE:  cpu time      0.0052: real time      0.0052
    MIXING:  cpu time      0.0003: real time      0.0003
    --------------------------------------------
      LOOP:  cpu time      0.0990: real time      0.1068

 eigenvalue-minimisations  :  1478
 total energy-change (2. order) :-0.2283281E-01  (-0.2448762E-01)
 number of electron      40.0000104 magnetization 
 augmentation part        0.4632711 magnetization 

 Broyden mixing:
  rms(total) = 0.67641E-01    rms(broyden)= 0.67617E-01
  rms(prec ) = 0.13587E+00
  weight for this iteration     100.00

 eigenvalues of (default mixing * dielectric matrix)
  average eigenvalue GAMMA=   1.5494
  2.9256  1.4946  1.2132  1.0566  1.0566

 Free energy of the ion-electron system (eV)
  ---------------------------------------------------
  alpha Z        PSCENC =       240.34259355
  Ewald energy   TEWEN  =     -2693.37944630
  -Hartree energ DENC   =      -710.43779542
  -exchange      EXHF   =         0.00000000
  -V(xc)+E(xc)   XCENC  =       161.78630568
  PAW double counting   =      4538.03578581    -4526.26714559
  entropy T*S    EENTRO =        -0.00000000
  eigenvalues    EBANDS =      -333.90699577
  atomic energy  EATOM  =      3282.14180256
  Solvation  Ediel_sol  =         0.00000000
  ---------------------------------------------------
  free energy    TOTEN  =       -41.68489547 eV

  energy without entropy =      -41.68489547  energy(sigma->0) =      -41.68489547


--------------------------------------------------------------------------------------------------------




--------------------------------------- Iteration      1(  11)  ---------------------------------------


    POTLOK:  cpu time      0.0032: real time      0.0107
    SETDIJ:  cpu time      0.0016: real time      0.0016
    EDDIAG:  cpu time      0.0378: real time      0.0378
  RMM-DIIS:  cpu time      0.0440: real time      0.0441
    ORTHCH:  cpu time      0.0036: real time      0.0036
       DOS:  cpu time      0.0002: real time      0.0002
    CHARGE:  cpu time      0.0052: real time      0.0052
    MIXING:  cpu time      0.0002: real time      0.0002
    --------------------------------------------
      LOOP:  cpu time      0.0958: real time      0.1036

 eigenvalue-minimisations  :  1388
 total energy-change (2. order) : 0.2284486E-02  (-0.8624632E-02)
 number of electron      40.0000104 magnetization 
 augmentation part        0.4611875 magnetization 

 Broyden mixing:
  rms(total) = 0.21363E-01    rms(broyden)= 0.21344E-01
  rms(prec ) = 0.36740E-01
  weight for this iteration     100.00

 eigenvalues of (default mixing * dielectric matrix)
  average eigenvalue GAMMA=   1.5419
  2.6778  1.9199  1.9199  0.9452  0.9452  0.8434

 Free energy of the ion-electron system (eV)
  ---------------------------------------------------
  alpha Z        PSCENC =       240.34259355
  Ewald energy   TEWEN  =     -2693.37944630
  -Hartree energ DENC   =      -710.24472080
  -exchange      EXHF   =         0.00000000
  -V(xc)+E(xc)   XCENC  =       161.73841304
  PAW double counting   =      4591.17679803    -4578.59090229
  entropy T*S    EENTRO =        -0.00000000
  eigenvalues    EBANDS =      -334.86714878
  atomic energy  EATOM  =      3282.14180256
  Solvation  Ediel_sol  =         0.00000000
  ---------------------------------------------------
  free energy    TOTEN  =       -41.68261099 eV

  energy without entropy =      -41.68261099  energy(sigma->0) =      -41.68261099


--------------------------------------------------------------------------------------------------------




--------------------------------------- Iteration      1(  12)  ---------------------------------------


    POTLOK:  cpu time      0.0030: real time      0.0107
    SETDIJ:  cpu time      0.0015: real time      0.0015
    EDDIAG:  cpu time      0.0377: real time      0.0377
  RMM-DIIS:  cpu time      0.0562: real time      0.0564
    ORTHCH:  cpu time      0.0051: real time      0.0051
       DOS:  cpu time      0.0002: real time      0.0002
    CHARGE:  cpu time      0.0070: real time      0.0070
    MIXING:  cpu time      0.0003: real time      0.0003
    --------------------------------------------
      LOOP:  cpu time      0.1110: real time      0.1189

 eigenvalue-minimisations  :  1479
 total energy-change (2. order) :-0.1908147E-02  (-0.3129658E-02)
 number of electron      40.0000104 magnetization 
 augmentation part        0.4474144 magnetization 

 Broyden mixing:
  rms(total) = 0.21341E-01    rms(broyden)= 0.21338E-01
  rms(prec ) = 0.39196E-01
  weight for this iteration     100.00

 eigenvalues of (default mixing * dielectric matrix)
  average eigenvalue GAMMA=   1.5252
  2.9147  2.2168  2.2168  0.9274  0.9274  0.7367  0.7367

 Free energy of the ion-electron system (eV)
  ---------------------------------------------------
  alpha Z        PSCENC =       240.34259355
  Ewald energy   TEWEN  =     -2693.37944630
  -Hartree energ DENC   =      -710.51170470
  -exchange      EXHF   =         0.00000000
  -V(xc)+E(xc)   XCENC  =       161.76715748
  PAW double counting   =      4586.69201805    -4574.18547411
  entropy T*S    EENTRO =        -0.00000000
  eigenvalues    EBANDS =      -334.55146567
  atomic energy  EATOM  =      3282.14180256
  Solvation  Ediel_sol  =         0.00000000
  ---------------------------------------------------
  free energy    TOTEN  =       -41.68451914 eV

  energy without entropy =      -41.68451914  energy(sigma->0) =      -41.68451914


--------------------------------------------------------------------------------------------------------




--------------------------------------- Iteration      1(  13)  ---------------------------------------


    POTLOK:  cpu time      0.0034: real time      0.0108
    SETDIJ:  cpu time      0.0015: real time      0.0015
    EDDIAG:  cpu time      0.0413: real time      0.0414
  RMM-DIIS:  cpu time      0.0585: real time      0.0587
    ORTHCH:  cpu time      0.0051: real time      0.0051
       DOS:  cpu time      0.0002: real time      0.0002
    CHARGE:  cpu time      0.0071: real time      0.0071
    MIXING:  cpu time      0.0003: real time      0.0003
    --------------------------------------------
      LOOP:  cpu time      0.1174: real time      0.1250

 eigenvalue-minimisations  :  1558
 total energy-change (2. order) :-0.7656394E-03  (-0.1363110E-02)
 number of electron      40.0000104 magnetization 
 augmentation part        0.4401783 magnetization 

 Broyden mixing:
  rms(total) = 0.67052E-02    rms(broyden)= 0.67049E-02
  rms(prec ) = 0.13384E-01
  weight for this iteration     100.00

 eigenvalues of (default mixing * dielectric matrix)
  average eigenvalue GAMMA=   1.6360
  3.2744  2.5026  2.5026  0.9222  0.9222  1.0711  1.0711  0.8215

 Free energy of the ion-electron system (eV)
  ---------------------------------------------------
  alpha Z        PSCENC =       240.34259355
  Ewald energy   TEWEN  =     -2693.37944630
  -Hartree energ DENC   =      -710.75193741
  -exchange      EXHF   =         0.00000000
  -V(xc)+E(xc)   XCENC  =       161.77329572
  PAW double counting   =      4591.81536500    -4578.99599625
  entropy T*S    EENTRO =        -0.00000000
  eigenvalues    EBANDS =      -334.63096164
  atomic energy  EATOM  =      3282.14180256
  Solvation  Ediel_sol  =         0.00000000
  ---------------------------------------------------
  free energy    TOTEN  =       -41.68528477 eV

  energy without entropy =      -41.68528477  energy(sigma->0) =      -41.68528477


--------------------------------------------------------------------------------------------------------




--------------------------------------- Iteration      1(  14)  ---------------------------------------


    POTLOK:  cpu time      0.0104: real time      0.0106
    SETDIJ:  cpu time      0.0015: real time      0.0015
    EDDIAG:  cpu time      0.0419: real time      0.0420
  RMM-DIIS:  cpu time      0.0496: real time      0.0497
    ORTHCH:  cpu time      0.0036: real time      0.0036
       DOS:  cpu time      0.0002: real time      0.0002
    CHARGE:  cpu time      0.0052: real time      0.0052
    MIXING:  cpu time      0.0003: real time      0.0003
    --------------------------------------------
      LOOP:  cpu time      0.1127: real time      0.1130

 eigenvalue-minimisations  :  1558
 total energy-change (2. order) :-0.7164432E-03  (-0.8410346E-03)
 number of electron      40.0000104 magnetization 
 augmentation part        0.4349703 magnetization 

 Broyden mixing:
  rms(total) = 0.62405E-02    rms(broyden)= 0.62385E-02
  rms(prec ) = 0.90182E-02
  weight for this iteration     100.00

 eigenvalues of (default mixing * dielectric matrix)
  average eigenvalue GAMMA=   1.5978
  3.2447  2.7398  2.7398  1.2202  1.2202  0.9205  0.9205  0.8754  0.4987

 Free energy of the ion-electron system (eV)
  ---------------------------------------------------
  alpha Z        PSCENC =       240.34259355
  Ewald energy   TEWEN  =     -2693.37944630
  -Hartree energ DENC   =      -710.68746915
  -exchange      EXHF   =         0.00000000
  -V(xc)+E(xc)   XCENC  =       161.76575998
  PAW double counting   =      4597.20270607    -4584.28015818
  entropy T*S    EENTRO =        -0.00000000
  eigenvalues    EBANDS =      -334.79178976
  atomic energy  EATOM  =      3282.14180256
  Solvation  Ediel_sol  =         0.00000000
  ---------------------------------------------------
  free energy    TOTEN  =       -41.68600122 eV

  energy without entropy =      -41.68600122  energy(sigma->0) =      -41.68600122


--------------------------------------------------------------------------------------------------------




--------------------------------------- Iteration      1(  15)  ---------------------------------------


    POTLOK:  cpu time      0.0031: real time      0.0102
    SETDIJ:  cpu time      0.0015: real time      0.0015
    EDDIAG:  cpu time      0.0373: real time      0.0374
  RMM-DIIS:  cpu time      0.0521: real time      0.0522
    ORTHCH:  cpu time      0.0037: real time      0.0037
       DOS:  cpu time      0.0002: real time      0.0002
    CHARGE:  cpu time      0.0052: real time      0.0052
    MIXING:  cpu time      0.0003: real time      0.0003
    --------------------------------------------
      LOOP:  cpu time      0.1033: real time      0.1106

 eigenvalue-minimisations  :  1646
 total energy-change (2. order) :-0.3669281E-03  (-0.4064092E-03)
 number of electron      40.0000104 magnetization 
 augmentation part        0.4308365 magnetization 

 Broyden mixing:
  rms(total) = 0.53462E-02    rms(broyden)= 0.53458E-02
  rms(prec ) = 0.80447E-02
  weight for this iteration     100.00

 eigenvalues of (default mixing * dielectric matrix)
  average eigenvalue GAMMA=   1.5196
  3.7144  2.6945  2.6945  1.2532  1.2532  0.9186  0.9186  0.8855  0.4317  0.4317

 Free energy of the ion-electron system (eV)
  ---------------------------------------------------
  alpha Z        PSCENC =       240.34259355
  Ewald energy   TEWEN  =     -2693.37944630
  -Hartree energ DENC   =      -710.76844634
  -exchange      EXHF   =         0.00000000
  -V(xc)+E(xc)   XCENC  =       161.76992209
  PAW double counting   =      4598.12681590    -4585.16183018
  entropy T*S    EENTRO =        -0.00000000
  eigenvalues    EBANDS =      -334.75777943
  atomic energy  EATOM  =      3282.14180256
  Solvation  Ediel_sol  =         0.00000000
  ---------------------------------------------------
  free energy    TOTEN  =       -41.68636815 eV

  energy without entropy =      -41.68636815  energy(sigma->0) =      -41.68636815


--------------------------------------------------------------------------------------------------------




--------------------------------------- Iteration      1(  16)  ---------------------------------------


    POTLOK:  cpu time      0.0099: real time      0.0100
    SETDIJ:  cpu time      0.0016: real time      0.0016
    EDDIAG:  cpu time      0.0373: real time      0.0373
  RMM-DIIS:  cpu time      0.0539: real time      0.0540
    ORTHCH:  cpu time      0.0036: real time      0.0037
       DOS:  cpu time      0.0002: real time      0.0002
    CHARGE:  cpu time      0.0052: real time      0.0053
    MIXING:  cpu time      0.0004: real time      0.0010
    --------------------------------------------
      LOOP:  cpu time      0.1122: real time      0.1131

 eigenvalue-minimisations  :  1702
 total energy-change (2. order) :-0.2310656E-03  (-0.2589033E-03)
 number of electron      40.0000104 magnetization 
 augmentation part        0.4280995 magnetization 

 Broyden mixing:
  rms(total) = 0.49448E-02    rms(broyden)= 0.49446E-02
  rms(prec ) = 0.71391E-02
  weight for this iteration     100.00

 eigenvalues of (default mixing * dielectric matrix)
  average eigenvalue GAMMA=   1.6514
  4.9673  2.9332  2.2828  1.3027  1.3027  0.9192  0.9192  1.0669  1.0669  0.9017
  0.5029

 Free energy of the ion-electron system (eV)
  ---------------------------------------------------
  alpha Z        PSCENC =       240.34259355
  Ewald energy   TEWEN  =     -2693.37944630
  -Hartree energ DENC   =      -710.82307343
  -exchange      EXHF   =         0.00000000
  -V(xc)+E(xc)   XCENC  =       161.77225158
  PAW double counting   =      4599.47620235    -4586.46351733
  entropy T*S    EENTRO =        -0.00000000
  eigenvalues    EBANDS =      -334.75341220
  atomic energy  EATOM  =      3282.14180256
  Solvation  Ediel_sol  =         0.00000000
  ---------------------------------------------------
  free energy    TOTEN  =       -41.68659921 eV

  energy without entropy =      -41.68659921  energy(sigma->0) =      -41.68659921


--------------------------------------------------------------------------------------------------------




--------------------------------------- Iteration      1(  17)  ---------------------------------------


    POTLOK:  cpu time      0.0029: real time      0.0103
    SETDIJ:  cpu time      0.0015: real time      0.0015
    EDDIAG:  cpu time      0.0372: real time      0.0373
  RMM-DIIS:  cpu time      0.0521: real time      0.0522
    ORTHCH:  cpu time      0.0037: real time      0.0037
       DOS:  cpu time      0.0002: real time      0.0002
    CHARGE:  cpu time      0.0052: real time      0.0052
    MIXING:  cpu time      0.0003: real time      0.0003
    --------------------------------------------
      LOOP:  cpu time      0.1031: real time      0.1107

 eigenvalue-minimisations  :  1608
 total energy-change (2. order) :-0.1494536E-03  (-0.1722112E-03)
 number of electron      40.0000104 magnetization 
 augmentation part        0.4266183 magnetization 

 Broyden mixing:
  rms(total) = 0.94270E-03    rms(broyden)= 0.94265E-03
  rms(prec ) = 0.12413E-02
  weight for this iteration     100.00

 eigenvalues of (default mixing * dielectric matrix)
  average eigenvalue GAMMA=   1.6091
  3.2710  3.2710  2.8924  1.8815  1.8815  0.9250  0.9250  1.1692  0.9711  0.8090
  0.8090  0.5035

 Free energy of the ion-electron system (eV)
  ---------------------------------------------------
  alpha Z        PSCENC =       240.34259355
  Ewald energy   TEWEN  =     -2693.37944630
  -Hartree energ DENC   =      -710.92304118
  -exchange      EXHF   =         0.00000000
  -V(xc)+E(xc)   XCENC  =       161.77574821
  PAW double counting   =      4600.46275095    -4587.35075373
  entropy T*S    EENTRO =        -0.00000000
  eigenvalues    EBANDS =      -334.75640273
  atomic energy  EATOM  =      3282.14180256
  Solvation  Ediel_sol  =         0.00000000
  ---------------------------------------------------
  free energy    TOTEN  =       -41.68674867 eV

  energy without entropy =      -41.68674867  energy(sigma->0) =      -41.68674867


--------------------------------------------------------------------------------------------------------




--------------------------------------- Iteration      1(  18)  ---------------------------------------


    POTLOK:  cpu time      0.0104: real time      0.0106
    SETDIJ:  cpu time      0.0015: real time      0.0015
    EDDIAG:  cpu time      0.0373: real time      0.0374
  RMM-DIIS:  cpu time      0.0530: real time      0.0531
    ORTHCH:  cpu time      0.0036: real time      0.0036
       DOS:  cpu time      0.0002: real time      0.0002
    CHARGE:  cpu time      0.0052: real time      0.0052
    MIXING:  cpu time      0.0003: real time      0.0003
    --------------------------------------------
      LOOP:  cpu time      0.1115: real time      0.1119

 eigenvalue-minimisations  :  1650
 total energy-change (2. order) :-0.1068696E-03  (-0.1233346E-03)
 number of electron      40.0000104 magnetization 
 augmentation part        0.4256674 magnetization 

 Broyden mixing:
  rms(total) = 0.14485E-02    rms(broyden)= 0.14484E-02
  rms(prec ) = 0.22127E-02
  weight for this iteration     100.00

 eigenvalues of (default mixing * dielectric matrix)
  average eigenvalue GAMMA=   1.6784
  5.4852  2.7428  2.5805  2.5805  1.6196  1.2717  0.9307  0.9307  0.9098  0.7767
  0.7767  0.7447  0.4693

 Free energy of the ion-electron system (eV)
  ---------------------------------------------------
  alpha Z        PSCENC =       240.34259355
  Ewald energy   TEWEN  =     -2693.37944630
  -Hartree energ DENC   =      -710.89859956
  -exchange      EXHF   =         0.00000000
  -V(xc)+E(xc)   XCENC  =       161.77416556
  PAW double counting   =      4599.47447352    -4586.38345783
  entropy T*S    EENTRO =        -0.00000000
  eigenvalues    EBANDS =      -334.75838704
  atomic energy  EATOM  =      3282.14180256
  Solvation  Ediel_sol  =         0.00000000
  ---------------------------------------------------
  free energy    TOTEN  =       -41.68685554 eV

  energy without entropy =      -41.68685554  energy(sigma->0) =      -41.68685554


--------------------------------------------------------------------------------------------------------




--------------------------------------- Iteration      1(  19)  ---------------------------------------


    POTLOK:  cpu time      0.0030: real time      0.0116
    SETDIJ:  cpu time      0.0015: real time      0.0015
    EDDIAG:  cpu time      0.0370: real time      0.0370
WARNING in EDDRMM: call to ZHEGV failed, returncode =   6  3      6
  RMM-DIIS:  cpu time      0.0538: real time      0.0539
    ORTHCH:  cpu time      0.0037: real time      0.0037
       DOS:  cpu time      0.0002: real time      0.0002
    CHARGE:  cpu time      0.0052: real time      0.0052
    MIXING:  cpu time      0.0004: real time      0.0004
    --------------------------------------------
      LOOP:  cpu time      0.1047: real time      0.1136

 eigenvalue-minimisations  :  1673
 total energy-change (2. order) :-0.8790584E-04  (-0.1002527E-03)
 number of electron      40.0000104 magnetization 
 augmentation part        0.4249125 magnetization 

 Broyden mixing:
  rms(total) = 0.59519E-03    rms(broyden)= 0.59517E-03
  rms(prec ) = 0.97398E-03
  weight for this iteration     100.00

 eigenvalues of (default mixing * dielectric matrix)
  average eigenvalue GAMMA=   1.6057
  4.4987  2.2569  2.5939  2.3954  2.3954  1.6902  1.1524  0.9243  0.9243  0.9583
  0.7871  0.7204  0.7204  0.4627

 Free energy of the ion-electron system (eV)
  ---------------------------------------------------
  alpha Z        PSCENC =       240.34259355
  Ewald energy   TEWEN  =     -2693.37944630
  -Hartree energ DENC   =      -710.92321551
  -exchange      EXHF   =         0.00000000
  -V(xc)+E(xc)   XCENC  =       161.77513272
  PAW double counting   =      4600.13603316    -4587.01924402
  entropy T*S    EENTRO =        -0.00000000
  eigenvalues    EBANDS =      -334.76059960
  atomic energy  EATOM  =      3282.14180256
  Solvation  Ediel_sol  =         0.00000000
  ---------------------------------------------------
  free energy    TOTEN  =       -41.68694344 eV

  energy without entropy =      -41.68694344  energy(sigma->0) =      -41.68694344


--------------------------------------------------------------------------------------------------------




--------------------------------------- Iteration      1(  20)  ---------------------------------------


    POTLOK:  cpu time      0.0030: real time      0.0116
    SETDIJ:  cpu time      0.0015: real time      0.0015
    EDDIAG:  cpu time      0.0370: real time      0.0371
  RMM-DIIS:  cpu time      0.0529: real time      0.0530
    ORTHCH:  cpu time      0.0037: real time      0.0037
       DOS:  cpu time      0.0002: real time      0.0002
    CHARGE:  cpu time      0.0052: real time      0.0052
    MIXING:  cpu time      0.0004: real time      0.0004
    --------------------------------------------
      LOOP:  cpu time      0.1037: real time      0.1125

 eigenvalue-minimisations  :  1675
 total energy-change (2. order) :-0.7347962E-04  (-0.8488074E-04)
 number of electron      40.0000104 magnetization 
 augmentation part        0.4242863 magnetization 

 Broyden mixing:
  rms(total) = 0.10975E-02    rms(broyden)= 0.10975E-02
  rms(prec ) = 0.16710E-02
  weight for this iteration     100.00

 eigenvalues of (default mixing * dielectric matrix)
  average eigenvalue GAMMA=   1.6543
  6.4724  2.9963  2.7091  2.1919  1.8755  1.1858  1.1858  0.9161  0.9161  1.0849
  0.9417  0.7816  0.4879  0.5351  0.5351

 Free energy of the ion-electron system (eV)
  ---------------------------------------------------
  alpha Z        PSCENC =       240.34259355
  Ewald energy   TEWEN  =     -2693.37944630
  -Hartree energ DENC   =      -710.91952149
  -exchange      EXHF   =         0.00000000
  -V(xc)+E(xc)   XCENC  =       161.77509951
  PAW double counting   =      4599.90858724    -4586.79928370
  entropy T*S    EENTRO =        -0.00000000
  eigenvalues    EBANDS =      -334.75684830
  atomic energy  EATOM  =      3282.14180256
  Solvation  Ediel_sol  =         0.00000000
  ---------------------------------------------------
  free energy    TOTEN  =       -41.68701692 eV

  energy without entropy =      -41.68701692  energy(sigma->0) =      -41.68701692


--------------------------------------------------------------------------------------------------------




--------------------------------------- Iteration      1(  21)  ---------------------------------------


    POTLOK:  cpu time      0.0032: real time      0.0222
    SETDIJ:  cpu time      0.0017: real time      0.0017
    EDDIAG:  cpu time      0.0384: real time      0.0385
  RMM-DIIS:  cpu time      0.0519: real time      0.0520
    ORTHCH:  cpu time      0.0036: real time      0.0036
       DOS:  cpu time      0.0002: real time      0.0002
    CHARGE:  cpu time      0.0053: real time      0.0053
    MIXING:  cpu time      0.0005: real time      0.0005
    --------------------------------------------
      LOOP:  cpu time      0.1047: real time      0.1239

 eigenvalue-minimisations  :  1578
 total energy-change (2. order) :-0.6563642E-04  (-0.7498791E-04)
 number of electron      40.0000104 magnetization 
 augmentation part        0.4237416 magnetization 

 Broyden mixing:
  rms(total) = 0.54737E-03    rms(broyden)= 0.54731E-03
  rms(prec ) = 0.94227E-03
  weight for this iteration     100.00

 eigenvalues of (default mixing * dielectric matrix)
  average eigenvalue GAMMA=   1.5899
  5.5691  3.2599  2.4564  2.2935  2.0734  2.0734  0.9228  0.9228  1.0358  1.0358
  0.8456  0.7281  0.7281  0.6187  0.4379  0.4379

 Free energy of the ion-electron system (eV)
  ---------------------------------------------------
  alpha Z        PSCENC =       240.34259355
  Ewald energy   TEWEN  =     -2693.37944630
  -Hartree energ DENC   =      -710.93834064
  -exchange      EXHF   =         0.00000000
  -V(xc)+E(xc)   XCENC  =       161.77588509
  PAW double counting   =      4600.63438304    -4587.50500429
  entropy T*S    EENTRO =        -0.00000000
  eigenvalues    EBANDS =      -334.75895558
  atomic energy  EATOM  =      3282.14180256
  Solvation  Ediel_sol  =         0.00000000
  ---------------------------------------------------
  free energy    TOTEN  =       -41.68708256 eV

  energy without entropy =      -41.68708256  energy(sigma->0) =      -41.68708256


--------------------------------------------------------------------------------------------------------




--------------------------------------- Iteration      1(  22)  ---------------------------------------


    POTLOK:  cpu time      0.0029: real time      0.0110
    SETDIJ:  cpu time      0.0015: real time      0.0015
    EDDIAG:  cpu time      0.0371: real time      0.0372
  RMM-DIIS:  cpu time      0.0501: real time      0.0502
    ORTHCH:  cpu time      0.0036: real time      0.0036
       DOS:  cpu time      0.0002: real time      0.0002
    CHARGE:  cpu time      0.0052: real time      0.0053
    MIXING:  cpu time      0.0004: real time      0.0004
[...]
      7     -11.5155      2.00000
      8     -11.5109      2.00000
      9      -6.7583      2.00000
     10      -6.7356      2.00000
     11      -6.5129      2.00000
     12       0.1351      2.00000
     13       0.1450      2.00000
     14       0.2305      2.00000
     15       1.4163      2.00000
     16       1.4215      2.00000
     17       2.7950      2.00000
     18       2.8817      2.00000
     19       2.8893      2.00000
     20       3.6690      2.00000
     21       9.4045      0.00000
     22       9.4149      0.00000
     23      10.2804      0.00000
     24      12.7748      0.00000

 k-point    11 :       0.1875    0.1875    0.1875
  band No.  band energies     occupation 
      1     -43.2317      2.00000
      2     -21.6338      2.00000
      3     -21.4705      2.00000
      4     -21.4705      2.00000
      5     -21.3189      2.00000
      6     -12.3531      2.00000
      7     -12.0448      2.00000
      8     -12.0448      2.00000
      9      -6.7236      2.00000
     10      -6.7236      2.00000
     11      -6.4500      2.00000
     12       1.1814      2.00000
     13       1.7816      2.00000
     14       1.7816      2.00000
     15       1.8280      2.00000
     16       1.8280      2.00000
     17       2.3167      2.00000
     18       3.0557      2.00000
     19       3.0557      2.00000
     20       3.0818      2.00000
     21       8.1674      0.00000
     22       8.1674      0.00000
     23       9.5926      0.00000
     24      10.0190      0.00000

 k-point    12 :       0.3125    0.1875    0.1875
  band No.  band energies     occupation 
      1     -43.2304      2.00000
      2     -21.6704      2.00000
      3     -21.4949      2.00000
      4     -21.4675      2.00000
      5     -21.3331      2.00000
      6     -12.3277      2.00000
      7     -12.0274      2.00000
      8     -11.7314      2.00000
      9      -6.7546      2.00000
     10      -6.7335      2.00000
     11      -6.4584      2.00000
     12       0.7707      2.00000
     13       1.0673      2.00000
     14       1.5625      2.00000
     15       1.6315      2.00000
     16       1.7528      2.00000
     17       2.2186      2.00000
     18       2.9183      2.00000
     19       3.0755      2.00000
     20       3.1273      2.00000
     21       8.3919      0.00000
     22       8.7947      0.00000
     23       9.0023      0.00000
     24      10.5455      0.00000

 k-point    13 :       0.4375    0.1875    0.1875
  band No.  band energies     occupation 
      1     -43.2295      2.00000
      2     -21.7209      2.00000
      3     -21.4729      2.00000
      4     -21.4654      2.00000
      5     -21.3556      2.00000
      6     -12.3540      2.00000
      7     -12.0149      2.00000
      8     -11.4487      2.00000
      9      -6.7772      2.00000
     10      -6.6782      2.00000
     11      -6.5276      2.00000
     12       0.1931      2.00000
     13       0.8265      2.00000
     14       1.4383      2.00000
     15       1.4982      2.00000
     16       1.7241      2.00000
     17       2.2868      2.00000
     18       2.8271      2.00000
     19       3.0321      2.00000
     20       3.0900      2.00000
     21       8.5185      0.00000
     22       9.4893      0.00000
     23       9.5005      0.00000
     24      11.3674      0.00000

 k-point    14 :       0.3125    0.3125    0.1875
  band No.  band energies     occupation 
      1     -43.2292      2.00000
      2     -21.6479      2.00000
      3     -21.5631      2.00000
      4     -21.4733      2.00000
      5     -21.3570      2.00000
      6     -12.2076      2.00000
      7     -11.7709      2.00000
      8     -11.7210      2.00000
      9      -6.8112      2.00000
     10      -6.7994      2.00000
     11      -6.5052      2.00000
     12       0.6411      2.00000
     13       0.8146      2.00000
     14       0.9980      2.00000
     15       1.4762      2.00000
     16       1.5188      2.00000
     17       2.0310      2.00000
     18       2.9163      2.00000
     19       3.0977      2.00000
     20       3.3811      2.00000
     21       8.9739      0.00000
     22       9.0377      0.00000
     23       9.3641      0.00000
     24      11.0107      0.00000

 k-point    15 :       0.4375    0.3125    0.1875
  band No.  band energies     occupation 
      1     -43.2283      2.00000
      2     -21.6757      2.00000
      3     -21.5650      2.00000
      4     -21.4655      2.00000
      5     -21.3860      2.00000
      6     -12.1873      2.00000
      7     -11.7524      2.00000
      8     -11.4701      2.00000
      9      -6.8523      2.00000
     10      -6.7890      2.00000
     11      -6.5930      2.00000
     12       0.1852      2.00000
     13       0.5867      2.00000
     14       0.8593      2.00000
     15       1.3890      2.00000
     16       1.4511      2.00000
     17       2.0602      2.00000
     18       2.9290      2.00000
     19       3.0753      2.00000
     20       3.4870      2.00000
     21       9.1140      0.00000
     22       9.5544      0.00000
     23       9.8249      0.00000
     24      11.9984      0.00000

 k-point    16 :       0.4375    0.4375    0.1875
  band No.  band energies     occupation 
      1     -43.2274      2.00000
      2     -21.6394      2.00000
      3     -21.6266      2.00000
      4     -21.4622      2.00000
      5     -21.4165      2.00000
      6     -12.1327      2.00000
      7     -11.4900      2.00000
      8     -11.4827      2.00000
      9      -6.8663      2.00000
     10      -6.8634      2.00000
     11      -6.6770      2.00000
     12       0.1385      2.00000
     13       0.2443      2.00000
     14       0.4550      2.00000
     15       1.3596      2.00000
     16       1.3641      2.00000
     17       2.0179      2.00000
     18       3.0611      2.00000
     19       3.1180      2.00000
     20       3.6835      2.00000
     21       9.5859      0.00000
     22       9.5860      0.00000
     23      10.2395      0.00000
     24      12.9758      0.00000

 k-point    17 :       0.3125    0.3125    0.3125
  band No.  band energies     occupation 
      1     -43.2279      2.00000
      2     -21.6200      2.00000
      3     -21.5597      2.00000
      4     -21.5597      2.00000
      5     -21.3772      2.00000
      6     -11.8944      2.00000
      7     -11.6908      2.00000
      8     -11.6908      2.00000
      9      -6.9119      2.00000
     10      -6.9119      2.00000
     11      -6.6117      2.00000
     12       0.6570      2.00000
     13       0.8131      2.00000
     14       0.8131      2.00000
     15       1.2255      2.00000
     16       1.3645      2.00000
     17       1.3645      2.00000
     18       3.2202      2.00000
     19       3.2202      2.00000
     20       3.4566      2.00000
     21       9.3695      0.00000
     22       9.3695      0.00000
     23      11.2189      0.00000
     24      11.3722      0.00000

 k-point    18 :       0.4375    0.3125    0.3125
  band No.  band energies     occupation 
      1     -43.2270      2.00000
      2     -21.6480      2.00000
      3     -21.5634      2.00000
      4     -21.5573      2.00000
      5     -21.3986      2.00000
      6     -11.8353      2.00000
      7     -11.6690      2.00000
      8     -11.4560      2.00000
      9      -6.9828      2.00000
     10      -6.9275      2.00000
     11      -6.7463      2.00000
     12       0.1902      2.00000
     13       0.7547      2.00000
     14       0.8130      2.00000
     15       1.0040      2.00000
     16       1.2867      2.00000
     17       1.4327      2.00000
     18       3.2205      2.00000
     19       3.3862      2.00000
     20       3.5453      2.00000
     21       9.4764      0.00000
     22       9.7536      0.00000
     23       9.9644      0.00000
     24      10.7639      0.00000

 k-point    19 :       0.4375    0.4375    0.3125
  band No.  band energies     occupation 
      1     -43.2261      2.00000
      2     -21.6288      2.00000
      3     -21.6229      2.00000
      4     -21.5564      2.00000
      5     -21.4101      2.00000
      6     -11.7310      2.00000
      7     -11.4528      2.00000
      8     -11.4415      2.00000
      9      -7.0291      2.00000
     10      -7.0163      2.00000
     11      -6.8997      2.00000
     12       0.1436      2.00000
     13       0.2644      2.00000
     14       0.8559      2.00000
     15       0.9544      2.00000
     16       1.2975      2.00000
     17       1.3051      2.00000
     18       3.4217      2.00000
     19       3.4550      2.00000
     20       3.7081      2.00000
     21       9.7495      0.00000
     22       9.8159      0.00000
     23      10.1061      0.00000
     24      10.5408      0.00000

 k-point    20 :       0.4375    0.4375    0.4375
  band No.  band energies     occupation 
      1     -43.2252      2.00000
      2     -21.6219      2.00000
      3     -21.6203      2.00000
      4     -21.6203      2.00000
      5     -21.4054      2.00000
      6     -11.4437      2.00000
      7     -11.4114      2.00000
      8     -11.4114      2.00000
      9      -7.1209      2.00000
     10      -7.1209      2.00000
     11      -7.0681      2.00000
     12       0.1474      2.00000
     13       0.1474      2.00000
     14       0.3947      2.00000
     15       1.1443      2.00000
     16       1.2538      2.00000
     17       1.2538      2.00000
     18       3.6862      2.00000
     19       3.6862      2.00000
     20       3.7429      2.00000
     21       9.7660      0.00000
     22       9.8750      0.00000
     23       9.8750      0.00000
     24      11.1339      0.00000


--------------------------------------------------------------------------------------------------------


 soft charge-density along one line, spin component           1
         0         1         2         3         4         5         6         7         8         9
 total charge-density along one line
 
 pseudopotential strength for first ion, spin component:           1
  1.055  -4.897  -0.000  -0.000  -0.000  -0.000  -0.000  -0.000
 -4.897   0.592   0.000   0.000   0.000  -0.000  -0.000  -0.000
 -0.000   0.000  -7.720   0.000   0.000   4.422   0.000   0.000
 -0.000   0.000   0.000  -7.720  -0.000   0.000   4.422  -0.000
 -0.000   0.000   0.000  -0.000  -7.720   0.000  -0.000   4.422
 -0.000  -0.000   4.422   0.000   0.000   6.813  -0.000  -0.000
 -0.000  -0.000   0.000   4.422  -0.000  -0.000   6.813   0.000
 -0.000  -0.000   0.000  -0.000   4.422  -0.000   0.000   6.813
  0.000  -0.000  -0.000  -0.000  -0.000  -0.000  -0.000  -0.000
  0.000  -0.000  -0.000  -0.000  -0.000  -0.000  -0.000  -0.000
  0.000  -0.000   0.000  -0.000   0.000   0.000   0.000   0.000
 -0.000   0.000  -0.000  -0.000  -0.000  -0.000  -0.000  -0.000
 -0.000   0.000   0.000  -0.000  -0.000   0.000  -0.000  -0.000
  0.000  -0.000  -0.000  -0.000  -0.000  -0.000  -0.000  -0.000
  0.000  -0.000  -0.000  -0.000  -0.000  -0.000  -0.000  -0.000
  0.000  -0.000   0.000  -0.000   0.000   0.000   0.000   0.000
 -0.000   0.000  -0.000  -0.000  -0.000  -0.000  -0.000  -0.000
 -0.000   0.000   0.000  -0.000  -0.000   0.000  -0.000  -0.000
 total augmentation occupancy for first ion, spin component:           1
  2.003  -0.006   0.000   0.000   0.000   0.000   0.000   0.000  -0.000   0.000   0.000  -0.000   0.000  -0.000   0.000   0.000
 -0.006   0.363   0.000   0.000   0.000   0.000   0.000   0.000   0.000  -0.000   0.000  -0.000  -0.000   0.000   0.000  -0.000
  0.000   0.000   2.018   0.000   0.000  -0.009  -0.000  -0.000   0.000   0.000   0.000   0.000   0.000   0.000   0.000   0.000
  0.000   0.000   0.000   2.018   0.000  -0.000  -0.009   0.000   0.000   0.000   0.000   0.000   0.000   0.000   0.000   0.000
  0.000   0.000   0.000   0.000   2.018  -0.000  -0.000  -0.009   0.000   0.000   0.000   0.000   0.000   0.000   0.000   0.000
  0.000   0.000  -0.009   0.000   0.000   0.009   0.000  -0.000   0.000   0.000   0.000   0.000   0.000   0.000   0.000   0.000
  0.000   0.000  -0.000  -0.009   0.000   0.000   0.009  -0.000   0.000   0.000   0.000   0.000   0.000   0.000   0.000   0.000
  0.000   0.000   0.000   0.000  -0.009  -0.000  -0.000   0.009   0.000   0.000   0.000   0.000   0.000   0.000   0.000   0.000
  0.000   0.000   0.000   0.000   0.000   0.000   0.000   0.000   2.207  -0.000  -0.000  -0.000  -0.000  -1.147   0.000   0.000
 -0.000  -0.000   0.000   0.000   0.000   0.000   0.000   0.000   0.000   2.207   0.000  -0.000  -0.000   0.000  -1.147   0.000
  0.000   0.000   0.000   0.000   0.000   0.000   0.000   0.000  -0.000   0.000   1.360  -0.000   0.000  -0.000   0.000  -0.705
 -0.000  -0.000   0.000   0.000   0.000   0.000   0.000   0.000   0.000   0.000  -0.000   2.207  -0.000  -0.000   0.000  -0.000
  0.000   0.000   0.000   0.000   0.000   0.000   0.000   0.000   0.000  -0.000   0.000  -0.000   1.360  -0.000  -0.000  -0.000
 -0.000   0.000   0.000   0.000   0.000   0.000   0.000   0.000  -1.147   0.000  -0.000  -0.000   0.000   0.598   0.000  -0.000
  0.000   0.000   0.000   0.000   0.000   0.000   0.000   0.000   0.000  -1.147  -0.000  -0.000  -0.000   0.000   0.598  -0.000
  0.000  -0.000   0.000   0.000   0.000   0.000   0.000   0.000   0.000  -0.000  -0.705  -0.000  -0.000   0.000  -0.000   0.366
  0.000   0.000   0.000   0.000   0.000   0.000   0.000   0.000  -0.000  -0.000  -0.000  -1.147   0.000   0.000   0.000  -0.000
 -0.000  -0.000   0.000   0.000   0.000   0.000   0.000   0.000  -0.000   0.000  -0.000  -0.000  -0.705   0.000  -0.000   0.000


------------------------ aborting loop because EDIFF is reached ----------------------------------------


    CHARGE:  cpu time      0.0052: real time      0.0052
    FORLOC:  cpu time      0.0005: real time      0.0005
    FORNL :  cpu time      0.0111: real time      0.0111
    STRESS:  cpu time      0.0349: real time      0.0350
    FORCOR:  cpu time      0.0039: real time      0.0039
    FORHAR:  cpu time      0.0012: real time      0.0012
    MIXING:  cpu time      0.0016: real time      0.0017
    OFIELD:  cpu time      0.0002: real time      0.0003

  FORCE on cell =-STRESS in cart. coord.  units (eV):
  Direction    XX          YY          ZZ          XY          YZ          ZX
  --------------------------------------------------------------------------------------
  Alpha Z   240.34259   240.34259   240.34259
  Ewald    -897.79392  -897.79392  -897.79392     0.00000    -0.00000     0.00000
  Hartree   236.97342   236.97342   236.97342    -0.00000    -0.00000    -0.00000
  E(xc)    -175.92151  -175.92151  -175.92151     0.00000     0.00000     0.00000
  Local     -60.55128   -60.55128   -60.55128     0.00000     0.00000     0.00000
  n-local  -124.86551  -119.37347  -111.81326     0.11209     0.30813     0.15822
  augment    13.58115    13.58115    13.58115     0.00000    -0.00000     0.00000
  Kinetic   758.42081   767.32653   767.28822    -3.23925    -4.10693    -2.70064
  Fock        0.00000     0.00000     0.00000     0.00000     0.00000     0.00000
  -------------------------------------------------------------------------------------
  Total       2.29155     2.29155     2.29155     0.00000     0.00000     0.00000
  in kB      49.83979    49.83979    49.83979     0.00000     0.00000     0.00000
  external pressure =       49.84 kB  Pullay stress =        0.00 kB


 VOLUME and BASIS-vectors are now :
 -----------------------------------------------------------------------------
  energy-cutoff  :      500.00
  volume of cell :       73.67
      direct lattice vectors                 reciprocal lattice vectors
     4.192000000  0.000000000  0.000000000     0.238549618  0.000000000  0.000000000
     0.000000000  4.192000000  0.000000000     0.000000000  0.238549618  0.000000000
     0.000000000  0.000000000  4.192000000     0.000000000  0.000000000  0.238549618

  length of vectors
     4.192000000  4.192000000  4.192000000     0.238549618  0.238549618  0.238549618


 FORCES acting on ions
    electron-ion (+dipol)            ewald-force                    non-local-force                 convergence-correction
 -----------------------------------------------------------------------------------------------
   -.505E-14 -.345E-14 -.317E-14   0.783E-14 -.293E-14 -.143E-14   0.687E-24 0.987E-24 0.149E-23   0.729E-12 0.132E-13 -.211E-12
   0.155E-12 -.186E-11 -.267E-11   -.160E-13 0.161E-13 0.157E-13   -.445E-23 -.951E-24 -.574E-23   -.193E-11 -.485E-12 0.250E-12
   0.177E-12 -.163E-11 -.534E-12   -.290E-14 -.992E-15 -.129E-13   -.138E-23 0.379E-22 -.554E-23   -.153E-11 -.163E-12 0.663E-13
   0.176E-12 -.145E-14 -.223E-11   -.403E-16 -.139E-13 0.234E-16   0.330E-22 0.242E-24 0.984E-22   -.606E-12 0.269E-12 -.247E-12
   -.375E-15 0.177E-12 0.175E-12   0.114E-13 0.111E-14 0.381E-16   0.589E-24 0.356E-23 0.177E-22   0.437E-12 -.111E-12 -.443E-13
 -----------------------------------------------------------------------------------------------
   0.502E-12 -.332E-11 -.527E-11   0.313E-15 -.640E-15 0.139E-14   0.285E-22 0.418E-22 0.106E-21   -.290E-11 -.477E-12 -.187E-12
 
 
 POSITION                                       TOTAL-FORCE (eV/Angst)
 -----------------------------------------------------------------------------------
      0.00000      0.00000      0.00000        -0.000000     -0.000000     -0.000000
      2.09600      2.09600      2.09600         0.000000      0.000000      0.000000
      2.09600      2.09600      0.00000         0.000000      0.000000     -0.000000
      2.09600      0.00000      2.09600        -0.000000     -0.000000      0.000000
      0.00000      2.09600      2.09600        -0.000000      0.000000     -0.000000
 -----------------------------------------------------------------------------------
    total drift:                               -0.000000     -0.000000     -0.000000


--------------------------------------------------------------------------------------------------------



  FREE ENERGIE OF THE ION-ELECTRON SYSTEM (eV)
  ---------------------------------------------------
  free  energy   TOTEN  =       -41.68761703 eV

  energy  without entropy=      -41.68761703  energy(sigma->0) =      -41.68761703
 


--------------------------------------------------------------------------------------------------------


    POTLOK:  cpu time      0.0047: real time      0.0047


--------------------------------------------------------------------------------------------------------


 stress matrix after NEB project (eV)
      2.29155      0.00000      0.00000
      0.00000      2.29155      0.00000
     -0.00000      0.00000      2.29155
  FORCES: max atom, RMS     0.000000    0.000000
  FORCE total and by dimension    0.000000    0.000000
  Stress total and by dimension    3.969082    2.291551
 writing wavefunctions
     LOOP+:  cpu time     11.3795: real time     12.3090
    4ORBIT:  cpu time      0.0000: real time      0.0000

 total amount of memory used by VASP MPI-rank0    32844. kBytes
=======================================================================

   base      :      30000. kBytes
   nonl-proj :       1813. kBytes
   fftplans  :        205. kBytes
   grid      :        374. kBytes
   one-center:         15. kBytes
   wavefun   :        437. kBytes
 
  
  
 General timing and accounting informations for this job:
 ========================================================
  
                  Total CPU time used (sec):       12.478
                            User time (sec):       11.701
                          System time (sec):        0.777
                         Elapsed time (sec):       13.950
  
                   Maximum memory used (kb):      167952.
                   Average memory used (kb):          N/A
  
                          Minor page faults:        26833
                          Major page faults:            1
                 Voluntary context switches:         3478
