<?xml version="1.0" encoding="ISO-8859-1"?>
<modeling>
 <generator>
  <i name="program" type="string">vasp </i>
  <i name="version" type="string">6.4.3  </i>
  <i name="subversion" type="string">19Mar24 (build Jul 09 2024 15:45:28) complex                          parallel </i>
  <i name="platform" type="string">LinuxIFC </i>
  <i name="date" type="string">2024 10 30 </i>
  <i name="time" type="string">23:49:58 </i>
 </generator>
 <incar>
  <i type="string" name="PREC">normal</i>
  <i type="string" name="ALGO">fast</i>
  <i type="int" name="NELM">   150</i>
  <i name="EDIFF">      0.00000001</i>
  <i name="ENCUT">    500.00000000</i>
  <i type="int" name="ISMEAR">     0</i>
  <i name="SIGMA">      0.05000000</i>
  <i type="logical" name="LWAVE"> T  </i>
  <i type="logical" name="LCHARG"> T  </i>
  <i type="string" name="GGA">PE</i>
 </incar>
 <primitive_cell>
  <structure name="primitive_cell" >
   <crystal>
    <varray name="basis" >
     <v>       4.19200000       0.00000000       0.00000000 </v>
     <v>       0.00000000       4.19200000       0.00000000 </v>
     <v>       0.00000000       0.00000000       4.19200000 </v>
    </varray>
    <i name="volume">     73.66544589 </i>
    <varray name="rec_basis" >
     <v>       0.23854962       0.00000000       0.00000000 </v>
     <v>       0.00000000       0.23854962       0.00000000 </v>
     <v>       0.00000000       0.00000000       0.23854962 </v>
    </varray>
   </crystal>
   <varray name="positions" >
    <v>       0.00000000       0.00000000       0.00000000 </v>
    <v>       0.50000000       0.50000000       0.50000000 </v>
    <v>       0.50000000       0.50000000       0.00000000 </v>
    <v>       0.50000000       0.00000000       0.50000000 </v>
    <v>       0.00000000       0.50000000       0.50000000 </v>
   </varray>
  </structure>
  <varray name="primitive_index" >
   <v type="int" >        1 </v>
   <v type="int" >        2 </v>
   <v type="int" >        3 </v>
   <v type="int" >        4 </v>
   <v type="int" >        5 </v>
  </varray>
 </primitive_cell>
 <kpoints>
  <generation param="Monkhorst-Pack">
   <v type="int" name="divisions">       8        8        8 </v>
   <v name="usershift">      0.00000000       0.00000000       0.00000000 </v>
   <v name="genvec1">      0.12500000       0.00000000       0.00000000 </v>
   <v name="genvec2">      0.00000000       0.12500000       0.00000000 </v>
   <v name="genvec3">      0.00000000       0.00000000       0.12500000 </v>
   <v name="shift">      0.50000000       0.50000000       0.50000000 </v>
  </generation>
  <varray name="kpointlist" >
   <v>       0.06250000       0.06250000       0.06250000 </v>
   <v>       0.18750000       0.06250000       0.06250000 </v>
   <v>       0.31250000       0.06250000       0.06250000 </v>
   <v>       0.43750000       0.06250000       0.06250000 </v>
   <v>       0.18750000       0.18750000       0.06250000 </v>
   <v>       0.31250000       0.18750000       0.06250000 </v>
   <v>       0.43750000       0.18750000       0.06250000 </v>
   <v>       0.31250000       0.31250000       0.06250000 </v>
   <v>       0.43750000       0.31250000       0.06250000 </v>
   <v>       0.43750000       0.43750000       0.06250000 </v>
   <v>       0.18750000       0.18750000       0.18750000 </v>
   <v>       0.31250000       0.18750000       0.18750000 </v>
   <v>       0.43750000       0.18750000       0.18750000 </v>
   <v>       0.31250000       0.31250000       0.18750000 </v>
   <v>       0.43750000       0.31250000       0.18750000 </v>
   <v>       0.43750000       0.43750000       0.18750000 </v>
   <v>       0.31250000       0.31250000       0.31250000 </v>
   <v>       0.43750000       0.31250000       0.31250000 </v>
   <v>       0.43750000       0.43750000       0.31250000 </v>
   <v>       0.43750000       0.43750000       0.43750000 </v>
  </varray>
  <varray name="weights" >
   <v>       0.01562500 </v>
   <v>       0.04687500 </v>
   <v>       0.04687500 </v>
   <v>       0.04687500 </v>
   <v>       0.04687500 </v>
   <v>       0.09375000 </v>
   <v>       0.09375000 </v>
   <v>       0.04687500 </v>
   <v>       0.09375000 </v>
   <v>       0.04687500 </v>
   <v>       0.01562500 </v>
   <v>       0.04687500 </v>
   <v>       0.04687500 </v>
   <v>       0.04687500 </v>
   <v>       0.09375000 </v>
   <v>       0.04687500 </v>
   <v>       0.01562500 </v>
   <v>       0.04687500 </v>
   <v>       0.04687500 </v>
   <v>       0.01562500 </v>
  </varray>
 </kpoints>
 <parameters>
  <separator name="general" >
   <i type="string" name="SYSTEM">unknown system</i>
   <i type="logical" name="LCOMPAT"> F  </i>
  </separator>
  <separator name="electronic" >
   <i type="string" name="PREC">normal</i>
   <i name="ENMAX">    500.00000000</i>
   <i name="ENAUG">    605.39200000</i>
   <i name="EDIFF">      0.00000001</i>
   <i type="int" name="IALGO">    68</i>
   <i type="int" name="IWAVPR">    10</i>
   <i type="int" name="NBANDS">    24</i>
   <i type="int" name="NBANDSLOW">    -1</i>
   <i type="int" name="NBANDSHIGH">    -1</i>
   <i name="NELECT">     40.00000000</i>
   <i type="int" name="TURBO">     0</i>
   <i type="int" name="IRESTART">     0</i>
   <i type="int" name="NREBOOT">     0</i>
   <i type="int" name="NMIN">     0</i>
   <i name="EREF">      0.00000000</i>
   <separator name="electronic smearing" >
    <i type="int" name="ISMEAR">     0</i>
    <i name="SIGMA">      0.05000000</i>
    <i name="KSPACING">      0.50000000</i>
    <i type="logical" name="KGAMMA"> T  </i>
    <i type="logical" name="KBLOWUP"> T  </i>
   </separator>
   <separator name="electronic projectors" >
    <i type="logical" name="LREAL"> F  </i>
    <v name="ROPT">      0.00000000      0.00000000      0.00000000</v>
    <i type="int" name="LMAXPAW">  -100</i>
    <i type="int" name="LMAXMIX">     2</i>
    <i type="logical" name="NLSPLINE"> F  </i>
   </separator>
   <separator name="electronic startup" >
    <i type="int" name="ISTART">     0</i>
    <i type="int" name="ICHARG">     2</i>
    <i type="int" name="INIWAV">     1</i>
   </separator>
   <separator name="electronic spin" >
    <i type="int" name="ISPIN">     1</i>
    <i type="logical" name="LNONCOLLINEAR"> F  </i>
    <v name="MAGMOM">      1.00000000      1.00000000      1.00000000      1.00000000      1.00000000</v>
    <i name="NUPDOWN">     -1.00000000</i>
    <i type="logical" name="LSORBIT"> F  </i>
    <v name="SAXIS">      0.00000000      0.00000000      1.00000000</v>
    <i type="logical" name="LSPIRAL"> F  </i>
    <v name="QSPIRAL">      0.00000000      0.00000000      0.00000000</v>
    <i type="logical" name="LZEROZ"> F  </i>
   </separator>
   <separator name="electronic exchange-correlation" >
    <i type="logical" name="LASPH"> F  </i>
   </separator>
   <separator name="electronic convergence" >
    <i type="int" name="NELM">   150</i>
    <i type="int" name="NELMDL">    -5</i>
    <i type="int" name="NELMIN">     2</i>
    <i name="ENINI">    500.00000000</i>
    <separator name="electronic convergence detail" >
     <i type="logical" name="LDIAG"> T  </i>
     <i type="logical" name="LSUBROT"> F  </i>
     <i name="WEIMIN">      0.00000000</i>
     <i name="EBREAK">      0.00000000</i>
     <i name="DEPER">      0.30000000</i>
     <i type="int" name="NRMM">     4</i>
     <i name="TIME">      0.40000000</i>
    </separator>
   </separator>
   <separator name="electronic mixer" >
    <i name="AMIX">      0.40000000</i>
    <i name="BMIX">      1.00000000</i>
    <i name="AMIN">      0.10000000</i>
    <i name="AMIX_MAG">      1.60000000</i>
    <i name="BMIX_MAG">      1.00000000</i>
    <separator name="electronic mixer details" >
     <i type="int" name="IMIX">     4</i>
     <i type="logical" name="MIXFIRST"> F  </i>
     <i type="int" name="MAXMIX">   -45</i>
     <i name="WC">    100.00000000</i>
     <i type="int" name="INIMIX">     1</i>
     <i type="int" name="MIXPRE">     1</i>
     <i type="int" name="MREMOVE">     5</i>
    </separator>
   </separator>
   <separator name="electronic dipolcorrection" >
    <i type="logical" name="LDIPOL"> F  </i>
    <i type="logical" name="LMONO"> F  </i>
    <i type="int" name="IDIPOL">     0</i>
    <i name="EPSILON">      1.00000000</i>
    <v name="DIPOL">   -100.00000000   -100.00000000   -100.00000000</v>
    <i name="EFIELD">      0.00000000</i>
    <i type="logical" name="LVACPOTAV"> F  </i>
   </separator>
  </separator>
  <separator name="grids" >
   <i type="int" name="NGX">    24</i>
   <i type="int" name="NGY">    24</i>
   <i type="int" name="NGZ">    24</i>
   <i type="int" name="NGXF">    48</i>
   <i type="int" name="NGYF">    48</i>
   <i type="int" name="NGZF">    48</i>
   <i type="logical" name="ADDGRID"> F  </i>
  </separator>
  <separator name="ionic" >
   <i type="int" name="NSW">     0</i>
   <i type="int" name="IBRION">    -1</i>
   <i type="int" name="MDALGO">     0</i>
   <i type="int" name="ISIF">     2</i>
   <i name="PSTRESS">      0.00000000</i>
   <i name="EDIFFG">      0.00000010</i>
   <i type="int" name="NFREE">     0</i>
   <i name="POTIM">      0.50000000</i>
   <i name="SMASS">     -3.00000000</i>
   <i name="SCALEE">      1.00000000</i>
  </separator>
  <separator name="ionic md" >
   <i name="TEBEG">      0.00010000</i>
   <i name="TEEND">      0.00010000</i>
   <i type="int" name="NBLOCK">     1</i>
   <i type="int" name="KBLOCK">     1</i>
   <i type="int" name="NPACO">   256</i>
   <i name="APACO">     10.00000000</i>
  </separator>
  <separator name="symmetry" >
   <i type="int" name="ISYM">     2</i>
   <i name="SYMPREC">      0.00001000</i>
  </separator>
  <separator name="dos" >
   <i type="int" name="LORBIT">     0</i>
   <v name="RWIGS">     -1.00000000     -1.00000000     -1.00000000</v>
   <i type="int" name="NEDOS">   301</i>
   <i name="EMIN">     10.00000000</i>
   <i name="EMAX">    -10.00000000</i>
   <i name="EFERMI">      0.00000000</i>
  </separator>
  <separator name="writing" >
   <i type="int" name="NWRITE">     2</i>
   <i type="logical" name="LWAVE"> T  </i>
   <i type="logical" name="LDOWNSAMPLE"> F  </i>
   <i type="logical" name="LCHARG"> T  </i>
   <i type="logical" name="LPARD"> F  </i>
   <i type="logical" name="LVTOT"> F  </i>
   <i type="logical" name="LVHAR"> F  </i>
   <i type="logical" name="LELF"> F  </i>
   <i type="logical" name="LOPTICS"> F  </i>
   <v name="STM">      0.00000000      0.00000000      0.00000000      0.00000000      0.00000000      0.00000000      0.00000000</v>
  </separator>
  <separator name="performance" >
   <i type="int" name="NPAR">     4</i>
   <i type="int" name="NSIM">     4</i>
   <i type="int" name="NBLK">    -1</i>
   <i type="logical" name="LPLANE"> T  </i>
   <i type="logical" name="LSCALAPACK"> T  </i>
   <i type="logical" name="LSCAAWARE"> F  </i>
   <i type="logical" name="LSCALU"> F  </i>
   <i type="logical" name="LASYNC"> F  </i>
   <i type="logical" name="LORBITALREAL"> F  </i>
  </separator>
  <separator name="miscellaneous" >
   <i type="int" name="IDIOT">     3</i>
   <i type="int" name="PHON_NSTRUCT">    -1</i>
   <i type="logical" name="LMUSIC"> F  </i>
   <v name="POMASS">    137.32700000     91.22400000     16.00000000</v>
   <v name="DARWINR">      0.00000000      0.00000000      0.00000000</v>
   <v name="DARWINV">      1.00000000      1.00000000      1.00000000</v>
   <i type="logical" name="LCORR"> T  </i>
  </separator>
  <i type="logical" name="GGA_COMPAT"> T  </i>
  <i type="logical" name="LBERRY"> F  </i>
  <i type="int" name="ICORELEVEL">     0</i>
  <i type="logical" name="LDAU"> F  </i>
  <i type="int" name="I_CONSTRAINED_M">     0</i>
  <separator name="electronic exchange-correlation" >
   <i type="string" name="GGA    ">PE</i>
   <i type="string" name="XC_C">1</i>
   <i type="int" name="VOSKOWN">     0</i>
   <i type="logical" name="LHFCALC"> F  </i>
   <i type="string" name="PRECFOCK"></i>
   <i type="logical" name="LSYMGRAD"> F  </i>
   <i type="logical" name="LHFONE"> F  </i>
   <i type="logical" name="LRHFCALC"> F  </i>
   <i type="logical" name="LTHOMAS"> F  </i>
   <i type="logical" name="LMODELHF"> F  </i>
   <i type="logical" name="LFOCKACE"> F  </i>
   <i name="ENCUT4O">     -1.00000000</i>
   <i type="int" name="EXXOEP">     0</i>
   <i type="int" name="FOURORBIT">     0</i>
   <i name="AEXX">      0.00000000</i>
   <i name="HFALPHA">      0.00000000</i>
   <i name="MCALPHA">      0.00000000</i>
   <i name="ALDAX">      1.00000000</i>
   <i name="AGGAX">      1.00000000</i>
   <i name="AMGGAX">      1.00000000</i>
   <i name="ALDAC">      1.00000000</i>
   <i name="AGGAC">      1.00000000</i>
   <i name="AMGGAC">      1.00000000</i>
   <i type="int" name="NKREDX">     1</i>
   <i type="int" name="NKREDY">     1</i>
   <i type="int" name="NKREDZ">     1</i>
   <i type="logical" name="SHIFTRED"> F  </i>
   <i type="logical" name="ODDONLY"> F  </i>
   <i type="logical" name="EVENONLY"> F  </i>
   <i type="int" name="LMAXFOCK">     0</i>
   <i type="int" name="NMAXFOCKAE">     0</i>
   <i type="logical" name="LFOCKAEDFT"> F  </i>
   <i name="HFSCREEN">      0.00000000</i>
   <i name="HFSCREENC">      0.00000000</i>
   <i type="int" name="NBANDSGWLOW">     0</i>
  </separator>
  <separator name="vdW DFT" >
   <i type="logical" name="LUSE_VDW"> F  </i>
   <i type="int" name="IVDW_NL">    -1</i>
   <i type="logical" name="LSPIN_VDW"> F  </i>
   <i name="ZAB_VDW">     -0.84910000</i>
   <i name="GAMMA_VDW">      1.39626340</i>
   <i name="ALPHA_VDW">      0.00000000</i>
   <i name="PARAM1">      0.12340000</i>
   <i name="PARAM2">      1.00000000</i>
   <i name="BPARAM">      6.30000000</i>
   <i name="CPARAM">      0.00930000</i>
  </separator>
  <separator name="model GW" >
   <i type="int" name="MODEL_GW">     0</i>
   <i name="MODEL_EPS0">      8.83985351</i>
   <i name="MODEL_ALPHA">      1.00000000</i>
  </separator>
  <separator name="linear response parameters" >
   <i type="logical" name="LEPSILON"> F  </i>
   <i type="logical" name="LRPA"> F  </i>
   <i type="logical" name="LNABLA"> F  </i>
   <i type="logical" name="LVEL"> F  </i>
   <i name="CSHIFT">      0.10000000</i>
   <i name="OMEGAMAX">     -1.00000000</i>
   <i name="DEG_THRESHOLD">      0.00200000</i>
   <i name="RTIME">     -0.10000000</i>
   <i name="WPLASMAI">      0.00000000</i>
   <v name="DFIELD">      0.00000000      0.00000000      0.00000000</v>
   <v name="WPLASMA">      0.00000000      0.00000000      0.00000000      0.00000000      0.00000000      0.00000000      0.00000000      0.00000000      0.00000000</v>
  </separator>
  <separator name="orbital magnetization" >
   <i type="logical" name="NUCIND"> F  </i>
   <v name="MAGPOS">      0.00000000      0.00000000      0.00000000</v>
   <i type="logical" name="LNICSALL"> T  </i>
   <i type="logical" name="ORBITALMAG"> F  </i>
   <i type="logical" name="LMAGBLOCH"> F  </i>
   <i type="logical" name="LCHIMAG"> F  </i>
   <i type="logical" name="LGAUGE"> T  </i>
   <i type="int" name="MAGATOM">     0</i>
   <v name="MAGDIPOL">      0.00000000      0.00000000      0.00000000</v>
   <v name="AVECCONST">      0.00000000      0.00000000      0.00000000</v>
  </separator>
  <separator name="response functions" >
   <i type="logical" name="LALL_IN_ONE"> F  </i>
   <i type="int" name="IALL_IN_ONE">    -1</i>
   <i type="int" name="NBANDS_WAVE">    -1</i>
   <i type="logical" name="LFINITE_TEMPERATURE"> F  </i>
   <i type="logical" name="LADDER"> F  </i>
   <i type="logical" name="LRPAFORCE"> F  </i>
   <i type="logical" name="LFXC"> F  </i>
   <i type="logical" name="LHARTREE"> T  </i>
   <i type="int" name="IBSE">     0</i>
   <v type="int" name="KPOINT">    -1     0     0     0</v>
   <i type="logical" name="LTCTC"> F  </i>
   <i type="logical" name="LTCTE"> F  </i>
   <i type="logical" name="LTETE"> F  </i>
   <i type="logical" name="LTRIPLET"> F  </i>
   <i type="logical" name="LFXCEPS"> F  </i>
   <i type="logical" name="LFXHEG"> F  </i>
   <i type="int" name="NATURALO">     2</i>
   <i type="logical" name="LHOLEGF"> F  </i>
   <i type="logical" name="L2ORDER"> F  </i>
   <i type="logical" name="LDMP1"> F  </i>
   <i type="logical" name="LMP2LT"> F  </i>
   <i type="logical" name="LSMP2LT"> F  </i>
   <i type="logical" name="LGWLF"> F  </i>
   <i name="ENCUTGW">     -1.60000002</i>
   <i name="ENCUTGWSOFT">     -1.60000002</i>
   <i name="ENCUTLF">     -1.00000000</i>
   <i type="logical" name="ESF_SPLINES"> F  </i>
   <i name="ESF_CONV">      0.01000000</i>
   <i type="int" name="ESF_NINTER">    15</i>
   <i type="int" name="LMAXMP2">    -1</i>
   <i name="SCISSOR">      0.00000000</i>
   <i type="int" name="NOMEGA">     0</i>
   <i type="int" name="NOMEGAR">     0</i>
   <i type="int" name="NBANDSGW">    -1</i>
   <i type="int" name="NBANDSO">    -1</i>
   <i type="int" name="NBANDSV">    -1</i>
   <i type="int" name="NELMGW">     1</i>
   <i type="int" name="NELMHF">     1</i>
   <i type="int" name="DIM">     3</i>
   <i type="int" name="IESPILON">     4</i>
   <i type="int" name="ANTIRES">     0</i>
   <i name="OMEGAMAX">    -30.00000000</i>
   <i name="OMEGAMIN">    -30.00000000</i>
   <i name="OMEGATL">   -200.00000000</i>
   <i type="int" name="OMEGAGRID">     0</i>
   <i name="CSHIFT">     -0.10000000</i>
   <i type="logical" name="LSELFENERGY"> F  </i>
   <i type="logical" name="LSPECTRAL"> F  </i>
   <i type="logical" name="LSPECTRALGW"> F  </i>
   <i type="logical" name="LSINGLES"> F  </i>
   <i type="logical" name="LFERMIGW"> F  </i>
   <i type="logical" name="ODDONLYGW"> F  </i>
   <i type="logical" name="EVENONLYGW"> F  </i>
   <i type="int" name="NKREDLFX">     1</i>
   <i type="int" name="NKREDLFY">     1</i>
   <i type="int" name="NKREDLFZ">     1</i>
   <i type="int" name="MAXMEM">  2800</i>
   <i type="int" name="TELESCOPE">     0</i>
   <i type="int" name="NTAUPAR">    -1</i>
   <i type="int" name="NOMEGAPAR">    -1</i>
   <i name="DAMP_NEWTON">      0.80000001</i>
   <i name="LAMBDA">      1.00000000</i>
  </separator>
  <separator name="External order field" >
   <i name="OFIELD_KAPPA">      0.00000000</i>
   <v name="OFIELD_K">      0.00000000      0.00000000      0.00000000</v>
   <i name="OFIELD_Q6_NEAR">      0.00000000</i>
   <i name="OFIELD_Q6_FAR">      0.00000000</i>
   <i name="OFIELD_A">      0.00000000</i>
  </separator>
  <separator name="optional k-points parameters" >
   <i type="int" name="KPOINTS_OPT_MODE">     1</i>
   <i type="logical" name="LKPOINTS_OPT"> F  </i>
  </separator>
 </parameters>
 <atominfo>
  <atoms>       5 </atoms>
  <types>       3 </types>
  <array name="atoms" >
   <dimension dim="1">ion</dimension>
   <field type="string">element</field>
   <field type="int">atomtype</field>
   <set>
    <rc><c>Ba</c><c>   1</c></rc>
    <rc><c>Zr</c><c>   2</c></rc>
    <rc><c>O </c><c>   3</c></rc>
    <rc><c>O </c><c>   3</c></rc>
    <rc><c>O </c><c>   3</c></rc>
   </set>
  </array>
  <array name="atomtypes" >
   <dimension dim="1">type</dimension>
   <field type="int">atomspertype</field>
   <field type="string">element</field>
   <field>mass</field>
   <field>valence</field>
   <field type="string">pseudopotential</field>
   <set>
    <rc><c>   1</c><c>Ba</c><c>    137.32700000</c><c>     10.00000000</c><c>  PAW_PBE Ba_sv 06Sep2000               </c></rc>
    <rc><c>   1</c><c>Zr</c><c>     91.22400000</c><c>     12.00000000</c><c>  PAW_PBE Zr_sv 04Jan2005               </c></rc>
    <rc><c>   3</c><c>O </c><c>     16.00000000</c><c>      6.00000000</c><c>  PAW_PBE O 08Apr2002                   </c></rc>
   </set>
  </array>
 </atominfo>
 <structure name="initialpos" >
  <crystal>
   <varray name="basis" >
    <v>       4.19200000       0.00000000       0.00000000 </v>
    <v>       0.00000000       4.19200000       0.00000000 </v>
    <v>       0.00000000       0.00000000       4.19200000 </v>
   </varray>
   <i name="volume">     73.66544589 </i>
   <varray name="rec_basis" >
    <v>       0.23854962       0.00000000       0.00000000 </v>
    <v>       0.00000000       0.23854962       0.00000000 </v>
    <v>       0.00000000       0.00000000       0.23854962 </v>
   </varray>
  </crystal>
  <varray name="positions" >
   <v>       0.00000000       0.00000000       0.00000000 </v>
   <v>       0.50000000       0.50000000       0.50000000 </v>
   <v>       0.50000000       0.50000000       0.00000000 </v>
   <v>       0.50000000       0.00000000       0.50000000 </v>
   <v>       0.00000000       0.50000000       0.50000000 </v>
  </varray>
 </structure>
 <calculation>
  <scstep>
   <time name="dav">    0.15    0.20</time>
   <time name="total">    0.16    0.21</time>
   <energy>
    <i name="alphaZ">    240.34259355 </i>
    <i name="ewald">  -2693.37944630 </i>
    <i name="hartreedc">   -682.79388567 </i>
    <i name="XCdc">    159.34886954 </i>
    <i name="pawpsdc">   2561.05225630 </i>
    <i name="pawaedc">  -2544.85325127 </i>
    <i name="eentropy">     -0.00405893 </i>
    <i name="bandstr">      1.38733424 </i>
    <i name="atom">   3282.14180256 </i>
    <i name="e_fr_energy">    323.24221403 </i>
    <i name="e_wo_entrp">    323.24627295 </i>
    <i name="e_0_energy">    323.24424349 </i>
   </energy>
  </scstep>
  <scstep>
   <time name="dav">    0.14    0.14</time>
   <time name="total">    0.14    0.14</time>
   <energy>
    <i name="e_fr_energy">    -29.42853146 </i>
    <i name="e_wo_entrp">    -29.42853146 </i>
    <i name="e_0_energy">    -29.42853146 </i>
   </energy>
  </scstep>
  <scstep>
   <time name="dav">    0.15    0.16</time>
   <time name="total">    0.15    0.16</time>
   <energy>
    <i name="e_fr_energy">    -48.70353295 </i>
    <i name="e_wo_entrp">    -48.70353295 </i>
    <i name="e_0_energy">    -48.70353295 </i>
   </energy>
  </scstep>
  <scstep>
   <time name="dav">    0.14    0.15</time>
   <time name="total">    0.14    0.15</time>
   <energy>
    <i name="e_fr_energy">    -49.25008766 </i>
    <i name="e_wo_entrp">    -49.25008766 </i>
    <i name="e_0_energy">    -49.25008766 </i>
   </energy>
  </scstep>
  <scstep>
   <time name="dav">    0.14    0.14</time>
   <time name="total">    0.14    0.15</time>
   <energy>
    <i name="e_fr_energy">    -49.26096014 </i>
    <i name="e_wo_entrp">    -49.26096014 </i>
    <i name="e_0_energy">    -49.26096014 </i>
   </energy>
  </scstep>
  <scstep>
   <time name="diag">    0.04    0.04</time>
   <time name="diis">    0.03    0.03</time>
   <time name="orth">    0.00    0.00</time>
   <time name="total">    0.09    0.10</time>
   <energy>
    <i name="e_fr_energy">    -41.33745242 </i>
    <i name="e_wo_entrp">    -41.33745242 </i>
    <i name="e_0_energy">    -41.33745242 </i>
   </energy>
  </scstep>
  <scstep>
   <time name="diag">    0.04    0.04</time>
   <time name="diis">    0.04    0.04</time>
   <time name="orth">    0.00    0.00</time>
   <time name="total">    0.09    0.10</time>
   <energy>
    <i name="e_fr_energy">    -41.70361387 </i>
    <i name="e_wo_entrp">    -41.70361387 </i>
    <i name="e_0_energy">    -41.70361387 </i>
   </energy>
  </scstep>
  <scstep>
   <time name="diag">    0.04    0.04</time>
   <time name="diis">    0.04    0.04</time>
   <time name="orth">    0.00    0.00</time>
   <time name="total">    0.10    0.11</time>
   <energy>
    <i name="e_fr_energy">    -41.71945674 </i>
    <i name="e_wo_entrp">    -41.71945674 </i>
    <i name="e_0_energy">    -41.71945674 </i>
   </energy>
  </scstep>
  <scstep>
   <time name="diag">    0.04    0.04</time>
   <time name="diis">    0.04    0.04</time>
   <time name="orth">    0.00    0.00</time>
   <time name="total">    0.10    0.10</time>
   <energy>
    <i name="e_fr_energy">    -41.66206267 </i>
    <i name="e_wo_entrp">    -41.66206267 </i>
    <i name="e_0_energy">    -41.66206267 </i>
   </energy>
  </scstep>
  <scstep>
   <time name="diag">    0.04    0.04</time>
   <time name="diis">    0.05    0.05</time>
   <time name="orth">    0.00    0.00</time>
   <time name="total">    0.10    0.11</time>
   <energy>
    <i name="e_fr_energy">    -41.68489547 </i>
    <i name="e_wo_entrp">    -41.68489547 </i>
    <i name="e_0_energy">    -41.68489547 </i>
   </energy>
  </scstep>
  <scstep>
   <time name="diag">    0.04    0.04</time>
   <time name="diis">    0.04    0.04</time>
   <time name="orth">    0.00    0.00</time>
   <time name="total">    0.10    0.10</time>
   <energy>
    <i name="e_fr_energy">    -41.68261099 </i>
    <i name="e_wo_entrp">    -41.68261099 </i>
    <i name="e_0_energy">    -41.68261099 </i>
   </energy>
  </scstep>
  <scstep>
   <time name="diag">    0.04    0.04</time>
   <time name="diis">    0.06    0.06</time>
   <time name="orth">    0.01    0.01</time>
   <time name="total">    0.11    0.12</time>
   <energy>
    <i name="e_fr_energy">    -41.68451914 </i>
    <i name="e_wo_entrp">    -41.68451914 </i>
    <i name="e_0_energy">    -41.68451914 </i>
   </energy>
  </scstep>
  <scstep>
   <time name="diag">    0.04    0.04</time>
   <time name="diis">    0.06    0.06</time>
   <time name="orth">    0.01    0.01</time>
   <time name="total">    0.12    0.12</time>
   <energy>
    <i name="e_fr_energy">    -41.68528477 </i>
    <i name="e_wo_entrp">    -41.68528477 </i>
    <i name="e_0_energy">    -41.68528477 </i>
   </energy>
  </scstep>
  <scstep>
   <time name="diag">    0.04    0.04</time>
   <time name="diis">    0.05    0.05</time>
   <time name="orth">    0.00    0.00</time>
   <time name="total">    0.11    0.11</time>
   <energy>
    <i name="e_fr_energy">    -41.68600122 </i>
    <i name="e_wo_entrp">    -41.68600122 </i>
    <i name="e_0_energy">    -41.68600122 </i>
   </energy>
  </scstep>
  <scstep>
   <time name="diag">    0.04    0.04</time>
   <time name="diis">    0.05    0.05</time>
   <time name="orth">    0.00    0.00</time>
   <time name="total">    0.10    0.11</time>
   <energy>
    <i name="e_fr_energy">    -41.68636815 </i>
    <i name="e_wo_entrp">    -41.68636815 </i>
    <i name="e_0_energy">    -41.68636815 </i>
   </energy>
  </scstep>
  <scstep>
   <time name="diag">    0.04    0.04</time>
   <time name="diis">    0.05    0.05</time>
   <time name="orth">    0.00    0.00</time>
   <time name="total">    0.11    0.11</time>
   <energy>
    <i name="e_fr_energy">    -41.68659921 </i>
    <i name="e_wo_entrp">    -41.68659921 </i>
    <i name="e_0_energy">    -41.68659921 </i>
   </energy>
  </scstep>
  <scstep>
   <time name="diag">    0.04    0.04</time>
   <time name="diis">    0.05    0.05</time>
   <time name="orth">    0.00    0.00</time>
   <time name="total">    0.10    0.11</time>
   <energy>
    <i name="e_fr_energy">    -41.68674867 </i>
    <i name="e_wo_entrp">    -41.68674867 </i>
    <i name="e_0_energy">    -41.68674867 </i>
   </energy>
  </scstep>
  <scstep>
   <time name="diag">    0.04    0.04</time>
   <time name="diis">    0.05    0.05</time>
   <time name="orth">    0.00    0.00</time>
   <time name="total">    0.11    0.11</time>
   <energy>
    <i name="e_fr_energy">    -41.68685554 </i>
    <i name="e_wo_entrp">    -41.68685554 </i>
    <i name="e_0_energy">    -41.68685554 </i>
   </energy>
  </scstep>
  <scstep>
   <time name="diag">    0.04    0.04</time>
   <time name="diis">    0.05    0.05</time>
   <time name="orth">    0.00    0.00</time>
   <time name="total">    0.10    0.11</time>
   <energy>
    <i name="e_fr_energy">    -41.68694344 </i>
    <i name="e_wo_entrp">    -41.68694344 </i>
    <i name="e_0_energy">    -41.68694344 </i>
   </energy>
  </scstep>
  <scstep>
   <time name="diag">    0.04    0.04</time>
   <time name="diis">    0.05    0.05</time>
   <time name="orth">    0.00    0.00</time>
   <time name="total">    0.10    0.11</time>
   <energy>
    <i name="e_fr_energy">    -41.68701692 </i>
    <i name="e_wo_entrp">    -41.68701692 </i>
    <i name="e_0_energy">    -41.68701692 </i>
   </energy>
  </scstep>
  <scstep>
   <time name="diag">    0.04    0.04</time>
   <time name="diis">    0.05    0.05</time>
   <time name="orth">    0.00    0.00</time>
   <time name="total">    0.10    0.12</time>
   <energy>
    <i name="e_fr_energy">    -41.68708256 </i>
    <i name="e_wo_entrp">    -41.68708256 </i>
    <i name="e_0_energy">    -41.68708256 </i>
   </energy>
  </scstep>
  <scstep>
   <time name="diag">    0.04    0.04</time>
   <time name="diis">    0.05    0.05</time>
   <time name="orth">    0.00    0.00</time>
   <time name="total">    0.10    0.11</time>
   <energy>
    <i name="e_fr_energy">    -41.68713685 </i>
    <i name="e_wo_entrp">    -41.68713685 </i>
    <i name="e_0_energy">    -41.68713685 </i>
   </energy>
  </scstep>
  <scstep>
   <time name="diag">    0.04    0.04</time>
   <time name="diis">    0.04    0.04</time>
   <time name="orth">    0.00    0.00</time>
   <time name="total">    0.10    0.10</time>
   <energy>
    <i name="e_fr_energy">    -41.68718236 </i>
    <i name="e_wo_entrp">    -41.68718236 </i>
    <i name="e_0_energy">    -41.68718236 </i>
   </energy>
  </scstep>
  <scstep>
   <time name="diag">    0.04    0.04</time>
   <time name="diis">    0.04    0.04</time>
   <time name="orth">    0.00    0.00</time>
   <time name="total">    0.09    0.10</time>
   <energy>
    <i name="e_fr_energy">    -41.68721981 </i>
    <i name="e_wo_entrp">    -41.68721981 </i>
    <i name="e_0_energy">    -41.68721981 </i>
   </energy>
  </scstep>
  <scstep>
   <time name="diag">    0.05    0.05</time>
   <time name="diis">    0.05    0.05</time>
   <time name="orth">    0.00    0.00</time>
   <time name="total">    0.11    0.12</time>
   <energy>
    <i name="e_fr_energy">    -41.68725128 </i>
    <i name="e_wo_entrp">    -41.68725128 </i>
    <i name="e_0_energy">    -41.68725128 </i>
   </energy>
  </scstep>
  <scstep>
   <time name="diag">    0.04    0.04</time>
   <time name="diis">    0.04    0.04</time>
   <time name="orth">    0.00    0.00</time>
   <time name="total">    0.10    0.11</time>
   <energy>
    <i name="e_fr_energy">    -41.68727846 </i>
    <i name="e_wo_entrp">    -41.68727846 </i>
    <i name="e_0_energy">    -41.68727846 </i>
   </energy>
  </scstep>
  <scstep>
   <time name="diag">    0.04    0.04</time>
   <time name="diis">    0.05    0.05</time>
   <time name="orth">    0.00    0.00</time>
   <time name="total">    0.11    0.11</time>
   <energy>
    <i name="e_fr_energy">    -41.68730305 </i>
    <i name="e_wo_entrp">    -41.68730305 </i>
    <i name="e_0_energy">    -41.68730305 </i>
   </energy>
  </scstep>
  <scstep>
   <time name="diag">    0.04    0.04</time>
   <time name="diis">    0.05    0.05</time>
   <time name="orth">    0.00    0.00</time>
   <time name="total">    0.10    0.11</time>
   <energy>
    <i name="e_fr_energy">    -41.68732634 </i>
    <i name="e_wo_entrp">    -41.68732634 </i>
    <i name="e_0_energy">    -41.68732634 </i>
   </energy>
  </scstep>
  <scstep>
   <time name="diag">    0.04    0.04</time>
   <time name="diis">    0.03    0.03</time>
   <time name="orth">    0.00    0.00</time>
   <time name="total">    0.09    0.09</time>
   <energy>
    <i name="e_fr_energy">    -41.68734901 </i>
    <i name="e_wo_entrp">    -41.68734901 </i>
    <i name="e_0_energy">    -41.68734901 </i>
   </energy>
  </scstep>
  <scstep>
   <time name="diag">    0.04    0.04</time>
   <time name="diis">    0.04    0.04</time>
   <time name="orth">    0.00    0.00</time>
   <time name="total">    0.09    0.10</time>
   <energy>
    <i name="e_fr_energy">    -41.68737081 </i>
    <i name="e_wo_entrp">    -41.68737081 </i>
    <i name="e_0_energy">    -41.68737081 </i>
   </energy>
  </scstep>
  <scstep>
   <time name="diag">    0.04    0.04</time>
   <time name="diis">    0.03    0.03</time>
   <time name="orth">    0.00    0.00</time>
   <time name="total">    0.08    0.09</time>
   <energy>
    <i name="e_fr_energy">    -41.68739192 </i>
    <i name="e_wo_entrp">    -41.68739192 </i>
    <i name="e_0_energy">    -41.68739192 </i>
   </energy>
  </scstep>
  <scstep>
   <time name="diag">    0.04    0.04</time>
   <time name="diis">    0.03    0.03</time>
   <time name="orth">    0.00    0.00</time>
   <time name="total">    0.08    0.09</time>
   <energy>
    <i name="e_fr_energy">    -41.68741192 </i>
    <i name="e_wo_entrp">    -41.68741192 </i>
    <i name="e_0_energy">    -41.68741192 </i>
   </energy>
  </scstep>
  <scstep>
   <time name="diag">    0.04    0.04</time>
   <time name="diis">    0.04    0.04</time>
   <time name="orth">    0.00    0.00</time>
   <time name="total">    0.10    0.11</time>
   <energy>
    <i name="e_fr_energy">    -41.68743082 </i>
    <i name="e_wo_entrp">    -41.68743082 </i>
    <i name="e_0_energy">    -41.68743082 </i>
   </energy>
  </scstep>
  <scstep>
   <time name="diag">    0.04    0.04</time>
   <time name="diis">    0.03    0.03</time>
   <time name="orth">    0.00    0.00</time>
   <time name="total">    0.09    0.10</time>
   <energy>
    <i name="e_fr_energy">    -41.68744846 </i>
    <i name="e_wo_entrp">    -41.68744846 </i>
    <i name="e_0_energy">    -41.68744846 </i>
   </energy>
  </scstep>
  <scstep>
   <time name="diag">    0.04    0.04</time>
   <time name="diis">    0.03    0.03</time>
   <time name="orth">    0.00    0.00</time>
   <time name="total">    0.08    0.09</time>
   <energy>
    <i name="e_fr_energy">    -41.68746484 </i>
    <i name="e_wo_entrp">    -41.68746484 </i>
    <i name="e_0_energy">    -41.68746484 </i>
   </energy>
  </scstep>
  <scstep>
   <time name="diag">    0.04    0.04</time>
   <time name="diis">    0.04    0.04</time>
   <time name="orth">    0.00    0.00</time>
   <time name="total">    0.09    0.10</time>
   <energy>
    <i name="e_fr_energy">    -41.68747915 </i>
    <i name="e_wo_entrp">    -41.68747915 </i>
    <i name="e_0_energy">    -41.68747915 </i>
   </energy>
  </scstep>
  <scstep>
   <time name="diag">    0.04    0.04</time>
   <time name="diis">    0.05    0.05</time>
   <time name="orth">    0.00    0.00</time>
   <time name="total">    0.10    0.11</time>
   <energy>
    <i name="e_fr_energy">    -41.68749180 </i>
    <i name="e_wo_entrp">    -41.68749180 </i>
    <i name="e_0_energy">    -41.68749180 </i>
   </energy>
  </scstep>
  <scstep>
   <time name="diag">    0.04    0.04</time>
   <time name="diis">    0.03    0.03</time>
   <time name="orth">    0.00    0.00</time>
   <time name="total">    0.08    0.09</time>
   <energy>
    <i name="e_fr_energy">    -41.68750221 </i>
    <i name="e_wo_entrp">    -41.68750221 </i>
    <i name="e_0_energy">    -41.68750221 </i>
   </energy>
  </scstep>
  <scstep>
   <time name="diag">    0.04    0.04</time>
   <time name="diis">    0.03    0.03</time>
   <time name="orth">    0.00    0.00</time>
   <time name="total">    0.09    0.09</time>
   <energy>
    <i name="e_fr_energy">    -41.68751077 </i>
    <i name="e_wo_entrp">    -41.68751077 </i>
    <i name="e_0_energy">    -41.68751077 </i>
   </energy>
  </scstep>
  <scstep>
   <time name="diag">    0.04    0.04</time>
   <time name="diis">    0.05    0.05</time>
   <time name="orth">    0.00    0.00</time>
   <time name="total">    0.10    0.11</time>
   <energy>
    <i name="e_fr_energy">    -41.68751729 </i>
    <i name="e_wo_entrp">    -41.68751729 </i>
    <i name="e_0_energy">    -41.68751729 </i>
   </energy>
  </scstep>
  <scstep>
   <time name="diag">    0.04    0.04</time>
   <time name="diis">    0.05    0.05</time>
   <time name="orth">    0.00    0.00</time>
   <time name="total">    0.10    0.11</time>
   <energy>
    <i name="e_fr_energy">    -41.68752340 </i>
    <i name="e_wo_entrp">    -41.68752340 </i>
    <i name="e_0_energy">    -41.68752340 </i>
   </energy>
  </scstep>
  <scstep>
   <time name="diag">    0.04    0.04</time>
   <time name="diis">    0.04    0.04</time>
   <time name="orth">    0.00    0.00</time>
   <time name="total">    0.10    0.10</time>
   <energy>
    <i name="e_fr_energy">    -41.68752860 </i>
    <i name="e_wo_entrp">    -41.68752860 </i>
    <i name="e_0_energy">    -41.68752860 </i>
   </energy>
  </scstep>
  <scstep>
   <time name="diag">    0.04    0.04</time>
   <time name="diis">    0.03    0.03</time>
   <time name="orth">    0.00    0.00</time>
   <time name="total">    0.08    0.09</time>
   <energy>
    <i name="e_fr_energy">    -41.68753373 </i>
    <i name="e_wo_entrp">    -41.68753373 </i>
    <i name="e_0_energy">    -41.68753373 </i>
   </energy>
  </scstep>
  <scstep>
   <time name="diag">    0.04    0.04</time>
   <time name="diis">    0.03    0.03</time>
   <time name="orth">    0.00    0.00</time>
   <time name="total">    0.08    0.09</time>
   <energy>
    <i name="e_fr_energy">    -41.68753797 </i>
    <i name="e_wo_entrp">    -41.68753797 </i>
    <i name="e_0_energy">    -41.68753797 </i>
   </energy>
  </scstep>
  <scstep>
   <time name="diag">    0.04    0.04</time>
   <time name="diis">    0.03    0.03</time>
   <time name="orth">    0.00    0.00</time>
   <time name="total">    0.09    0.09</time>
   <energy>
    <i name="e_fr_energy">    -41.68754237 </i>
    <i name="e_wo_entrp">    -41.68754237 </i>
    <i name="e_0_energy">    -41.68754237 </i>
   </energy>
  </scstep>
  <scstep>
   <time name="diag">    0.04    0.04</time>
   <time name="diis">    0.03    0.03</time>
   <time name="orth">    0.00    0.00</time>
   <time name="total">    0.08    0.09</time>
   <energy>
    <i name="e_fr_energy">    -41.68754595 </i>
    <i name="e_wo_entrp">    -41.68754595 </i>
    <i name="e_0_energy">    -41.68754595 </i>
   </energy>
  </scstep>
  <scstep>
   <time name="diag">    0.04    0.04</time>
   <time name="diis">    0.03    0.03</time>
   <time name="orth">    0.00    0.00</time>
   <time name="total">    0.08    0.09</time>
   <energy>
    <i name="e_fr_energy">    -41.68754974 </i>
    <i name="e_wo_entrp">    -41.68754974 </i>
    <i name="e_0_energy">    -41.68754974 </i>
   </energy>
  </scstep>
  <scstep>
   <time name="diag">    0.04    0.04</time>
   <time name="diis">    0.02    0.02</time>
   <time name="orth">    0.00    0.00</time>
   <time name="total">    0.08    0.08</time>
   <energy>
    <i name="e_fr_energy">    -41.68755281 </i>
    <i name="e_wo_entrp">    -41.68755281 </i>
    <i name="e_0_energy">    -41.68755281 </i>
   </energy>
  </scstep>
  <scstep>
   <time name="diag">    0.04    0.04</time>
   <time name="diis">    0.02    0.02</time>
   <time name="orth">    0.00    0.00</time>
   <time name="total">    0.08    0.08</time>
   <energy>
    <i name="e_fr_energy">    -41.68755607 </i>
    <i name="e_wo_entrp">    -41.68755607 </i>
    <i name="e_0_energy">    -41.68755607 </i>
   </energy>
  </scstep>
  <scstep>
   <time name="diag">    0.04    0.04</time>
   <time name="diis">    0.02    0.02</time>
   <time name="orth">    0.00    0.00</time>
   <time name="total">    0.08    0.08</time>
   <energy>
    <i name="e_fr_energy">    -41.68755866 </i>
    <i name="e_wo_entrp">    -41.68755866 </i>
    <i name="e_0_energy">    -41.68755866 </i>
   </energy>
  </scstep>
  <scstep>
   <time name="diag">    0.04    0.04</time>
   <time name="diis">    0.02    0.02</time>
   <time name="orth">    0.00    0.00</time>
   <time name="total">    0.08    0.08</time>
   <energy>
    <i name="e_fr_energy">    -41.68756149 </i>
    <i name="e_wo_entrp">    -41.68756149 </i>
    <i name="e_0_energy">    -41.68756149 </i>
   </energy>
  </scstep>
  <scstep>
   <time name="diag">    0.04    0.04</time>
   <time name="diis">    0.03    0.03</time>
   <time name="orth">    0.00    0.00</time>
   <time name="total">    0.08    0.09</time>
   <energy>
    <i name="e_fr_energy">    -41.68756385 </i>
    <i name="e_wo_entrp">    -41.68756385 </i>
    <i name="e_0_energy">    -41.68756385 </i>
   </energy>
  </scstep>
  <scstep>
   <time name="diag">    0.04    0.04</time>
   <time name="diis">    0.03    0.03</time>
   <time name="orth">    0.00    0.00</time>
   <time name="total">    0.09    0.09</time>
   <energy>
    <i name="e_fr_energy">    -41.68756656 </i>
    <i name="e_wo_entrp">    -41.68756656 </i>
    <i name="e_0_energy">    -41.68756656 </i>
   </energy>
  </scstep>
  <scstep>
   <time name="diag">    0.04    0.04</time>
   <time name="diis">    0.03    0.03</time>
   <time name="orth">    0.00    0.00</time>
   <time name="total">    0.08    0.08</time>
   <energy>
    <i name="e_fr_energy">    -41.68756887 </i>
    <i name="e_wo_entrp">    -41.68756887 </i>
    <i name="e_0_energy">    -41.68756887 </i>
   </energy>
  </scstep>
  <scstep>
   <time name="diag">    0.04    0.04</time>
   <time name="diis">    0.02    0.02</time>
   <time name="orth">    0.00    0.00</time>
   <time name="total">    0.08    0.08</time>
   <energy>
    <i name="e_fr_energy">    -41.68757151 </i>
    <i name="e_wo_entrp">    -41.68757151 </i>
    <i name="e_0_energy">    -41.68757151 </i>
   </energy>
  </scstep>
  <scstep>
   <time name="diag">    0.04    0.04</time>
   <time name="diis">    0.03    0.03</time>
   <time name="orth">    0.00    0.00</time>
   <time name="total">    0.08    0.09</time>
   <energy>
    <i name="e_fr_energy">    -41.68757382 </i>
    <i name="e_wo_entrp">    -41.68757382 </i>
    <i name="e_0_energy">    -41.68757382 </i>
   </energy>
  </scstep>
  <scstep>
   <time name="diag">    0.04    0.04</time>
   <time name="diis">    0.02    0.02</time>
   <time name="orth">    0.00    0.00</time>
   <time name="total">    0.07    0.08</time>
   <energy>
    <i name="e_fr_energy">    -41.68757643 </i>
    <i name="e_wo_entrp">    -41.68757643 </i>
    <i name="e_0_energy">    -41.68757643 </i>
   </energy>
  </scstep>
  <scstep>
   <time name="diag">    0.04    0.04</time>
   <time name="diis">    0.02    0.02</time>
   <time name="orth">    0.00    0.00</time>
   <time name="total">    0.08    0.08</time>
   <energy>
    <i name="e_fr_energy">    -41.68757878 </i>
    <i name="e_wo_entrp">    -41.68757878 </i>
    <i name="e_0_energy">    -41.68757878 </i>
   </energy>
  </scstep>
  <scstep>
   <time name="diag">    0.04    0.04</time>
   <time name="diis">    0.02    0.02</time>
   <time name="orth">    0.00    0.00</time>
   <time name="total">    0.08    0.08</time>
   <energy>
    <i name="e_fr_energy">    -41.68758135 </i>
    <i name="e_wo_entrp">    -41.68758135 </i>
    <i name="e_0_energy">    -41.68758135 </i>
   </energy>
  </scstep>
  <scstep>
   <time name="diag">    0.04    0.04</time>
   <time name="diis">    0.03    0.03</time>
   <time name="orth">    0.00    0.00</time>
   <time name="total">    0.08    0.09</time>
   <energy>
    <i name="e_fr_energy">    -41.68758369 </i>
    <i name="e_wo_entrp">    -41.68758369 </i>
    <i name="e_0_energy">    -41.68758369 </i>
   </energy>
  </scstep>
  <scstep>
   <time name="diag">    0.04    0.04</time>
   <time name="diis">    0.02    0.02</time>
   <time name="orth">    0.00    0.00</time>
   <time name="total">    0.08    0.09</time>
   <energy>
    <i name="e_fr_energy">    -41.68758620 </i>
    <i name="e_wo_entrp">    -41.68758620 </i>
    <i name="e_0_energy">    -41.68758620 </i>
   </energy>
  </scstep>
  <scstep>
   <time name="diag">    0.04    0.04</time>
   <time name="diis">    0.02    0.02</time>
   <time name="orth">    0.00    0.00</time>
   <time name="total">    0.07    0.08</time>
   <energy>
    <i name="e_fr_energy">    -41.68758856 </i>
    <i name="e_wo_entrp">    -41.68758856 </i>
    <i name="e_0_energy">    -41.68758856 </i>
   </energy>
  </scstep>
  <scstep>
   <time name="diag">    0.04    0.04</time>
   <time name="diis">    0.02    0.02</time>
   <time name="orth">    0.00    0.00</time>
   <time name="total">    0.07    0.08</time>
   <energy>
    <i name="e_fr_energy">    -41.68759101 </i>
    <i name="e_wo_entrp">    -41.68759101 </i>
    <i name="e_0_energy">    -41.68759101 </i>
   </energy>
  </scstep>
  <scstep>
   <time name="diag">    0.04    0.04</time>
   <time name="diis">    0.02    0.02</time>
   <time name="orth">    0.00    0.00</time>
   <time name="total">    0.07    0.08</time>
   <energy>
    <i name="e_fr_energy">    -41.68759334 </i>
    <i name="e_wo_entrp">    -41.68759334 </i>
    <i name="e_0_energy">    -41.68759334 </i>
   </energy>
  </scstep>
  <scstep>
   <time name="diag">    0.04    0.04</time>
   <time name="diis">    0.02    0.02</time>
   <time name="orth">    0.00    0.00</time>
   <time name="total">    0.07    0.08</time>
   <energy>
    <i name="e_fr_energy">    -41.68759569 </i>
    <i name="e_wo_entrp">    -41.68759569 </i>
    <i name="e_0_energy">    -41.68759569 </i>
   </energy>
  </scstep>
  <scstep>
   <time name="diag">    0.04    0.04</time>
   <time name="diis">    0.03    0.03</time>
   <time name="orth">    0.00    0.00</time>
   <time name="total">    0.08    0.09</time>
   <energy>
    <i name="e_fr_energy">    -41.68759795 </i>
    <i name="e_wo_entrp">    -41.68759795 </i>
    <i name="e_0_energy">    -41.68759795 </i>
   </energy>
  </scstep>
  <scstep>
   <time name="diag">    0.04    0.04</time>
   <time name="diis">    0.02    0.02</time>
   <time name="orth">    0.00    0.00</time>
   <time name="total">    0.07    0.08</time>
   <energy>
    <i name="e_fr_energy">    -41.68760017 </i>
    <i name="e_wo_entrp">    -41.68760017 </i>
    <i name="e_0_energy">    -41.68760017 </i>
   </energy>
  </scstep>
  <scstep>
   <time name="diag">    0.04    0.04</time>
   <time name="diis">    0.02    0.02</time>
   <time name="orth">    0.00    0.00</time>
   <time name="total">    0.07    0.08</time>
   <energy>
    <i name="e_fr_energy">    -41.68760230 </i>
    <i name="e_wo_entrp">    -41.68760230 </i>
    <i name="e_0_energy">    -41.68760230 </i>
   </energy>
  </scstep>
  <scstep>
   <time name="diag">    0.04    0.04</time>
   <time name="diis">    0.02    0.02</time>
   <time name="orth">    0.00    0.00</time>
   <time name="total">    0.07    0.08</time>
   <energy>
    <i name="e_fr_energy">    -41.68760432 </i>
    <i name="e_wo_entrp">    -41.68760432 </i>
    <i name="e_0_energy">    -41.68760432 </i>
   </energy>
  </scstep>
  <scstep>
   <time name="diag">    0.04    0.04</time>
   <time name="diis">    0.03    0.03</time>
   <time name="orth">    0.00    0.00</time>
   <time name="total">    0.08    0.09</time>
   <energy>
    <i name="e_fr_energy">    -41.68760624 </i>
    <i name="e_wo_entrp">    -41.68760624 </i>
    <i name="e_0_energy">    -41.68760624 </i>
   </energy>
  </scstep>
  <scstep>
   <time name="diag">    0.04    0.04</time>
   <time name="diis">    0.02    0.02</time>
   <time name="orth">    0.00    0.00</time>
   <time name="total">    0.08    0.08</time>
   <energy>
    <i name="e_fr_energy">    -41.68760796 </i>
    <i name="e_wo_entrp">    -41.68760796 </i>
    <i name="e_0_energy">    -41.68760796 </i>
   </energy>
  </scstep>
  <scstep>
   <time name="diag">    0.04    0.04</time>
   <time name="diis">    0.02    0.02</time>
   <time name="orth">    0.00    0.00</time>
   <time name="total">    0.07    0.08</time>
   <energy>
    <i name="e_fr_energy">    -41.68760953 </i>
    <i name="e_wo_entrp">    -41.68760953 </i>
    <i name="e_0_energy">    -41.68760953 </i>
   </energy>
  </scstep>
  <scstep>
   <time name="diag">    0.04    0.04</time>
   <time name="diis">    0.02    0.02</time>
   <time name="orth">    0.00    0.00</time>
   <time name="total">    0.07    0.08</time>
   <energy>
    <i name="e_fr_energy">    -41.68761077 </i>
    <i name="e_wo_entrp">    -41.68761077 </i>
    <i name="e_0_energy">    -41.68761077 </i>
   </energy>
  </scstep>
  <scstep>
   <time name="diag">    0.04    0.04</time>
   <time name="diis">    0.02    0.02</time>
   <time name="orth">    0.00    0.00</time>
   <time name="total">    0.08    0.08</time>
   <energy>
    <i name="e_fr_energy">    -41.68761176 </i>
    <i name="e_wo_entrp">    -41.68761176 </i>
    <i name="e_0_energy">    -41.68761176 </i>
   </energy>
  </scstep>
  <scstep>
   <time name="diag">    0.04    0.04</time>
   <time name="diis">    0.02    0.02</time>
   <time name="orth">    0.00    0.00</time>
   <time name="total">    0.07    0.08</time>
   <energy>
    <i name="e_fr_energy">    -41.68761232 </i>
    <i name="e_wo_entrp">    -41.68761232 </i>
    <i name="e_0_energy">    -41.68761232 </i>
   </energy>
  </scstep>
  <scstep>
   <time name="diag">    0.04    0.04</time>
   <time name="diis">    0.03    0.03</time>
   <time name="orth">    0.00    0.00</time>
   <time name="total">    0.08    0.08</time>
   <energy>
    <i name="e_fr_energy">    -41.68761267 </i>
    <i name="e_wo_entrp">    -41.68761267 </i>
    <i name="e_0_energy">    -41.68761267 </i>
   </energy>
  </scstep>
  <scstep>
   <time name="diag">    0.04    0.04</time>
   <time name="diis">    0.02    0.02</time>
   <time name="orth">    0.00    0.00</time>
   <time name="total">    0.08    0.08</time>
   <energy>
    <i name="e_fr_energy">    -41.68761272 </i>
    <i name="e_wo_entrp">    -41.68761272 </i>
    <i name="e_0_energy">    -41.68761272 </i>
   </energy>
  </scstep>
  <scstep>
   <time name="diag">    0.04    0.04</time>
   <time name="diis">    0.02    0.02</time>
   <time name="orth">    0.00    0.00</time>
   <time name="total">    0.08    0.08</time>
   <energy>
    <i name="e_fr_energy">    -41.68761274 </i>
    <i name="e_wo_entrp">    -41.68761274 </i>
    <i name="e_0_energy">    -41.68761274 </i>
   </energy>
  </scstep>
  <scstep>
   <time name="diag">    0.04    0.04</time>
   <time name="diis">    0.02    0.02</time>
   <time name="orth">    0.00    0.00</time>
   <time name="total">    0.07    0.08</time>
   <energy>
    <i name="e_fr_energy">    -41.68761266 </i>
    <i name="e_wo_entrp">    -41.68761266 </i>
    <i name="e_0_energy">    -41.68761266 </i>
   </energy>
  </scstep>
  <scstep>
   <time name="diag">    0.04    0.04</time>
   <time name="diis">    0.02    0.02</time>
   <time name="orth">    0.00    0.00</time>
   <time name="total">    0.07    0.08</time>
   <energy>
    <i name="e_fr_energy">    -41.68761266 </i>
    <i name="e_wo_entrp">    -41.68761266 </i>
    <i name="e_0_energy">    -41.68761266 </i>
   </energy>
  </scstep>
  <scstep>
   <time name="diag">    0.04    0.04</time>
   <time name="diis">    0.03    0.03</time>
   <time name="orth">    0.00    0.00</time>
   <time name="total">    0.08    0.08</time>
   <energy>
    <i name="e_fr_energy">    -41.68761260 </i>
    <i name="e_wo_entrp">    -41.68761260 </i>
    <i name="e_0_energy">    -41.68761260 </i>
   </energy>
  </scstep>
  <scstep>
   <time name="diag">    0.04    0.04</time>
   <time name="diis">    0.02    0.02</time>
   <time name="orth">    0.00    0.00</time>
   <time name="total">    0.08    0.08</time>
   <energy>
    <i name="e_fr_energy">    -41.68761261 </i>
    <i name="e_wo_entrp">    -41.68761261 </i>
    <i name="e_0_energy">    -41.68761261 </i>
   </energy>
  </scstep>
  <scstep>
   <time name="diag">    0.04    0.04</time>
   <time name="diis">    0.02    0.02</time>
   <time name="orth">    0.00    0.00</time>
   <time name="total">    0.08    0.09</time>
   <energy>
    <i name="e_fr_energy">    -41.68761255 </i>
    <i name="e_wo_entrp">    -41.68761255 </i>
    <i name="e_0_energy">    -41.68761255 </i>
   </energy>
  </scstep>
  <scstep>
   <time name="diag">    0.04    0.04</time>
   <time name="diis">    0.02    0.02</time>
   <time name="orth">    0.00    0.00</time>
   <time name="total">    0.08    0.08</time>
   <energy>
    <i name="e_fr_energy">    -41.68761257 </i>
    <i name="e_wo_entrp">    -41.68761257 </i>
    <i name="e_0_energy">    -41.68761257 </i>
   </energy>
  </scstep>
  <scstep>
   <time name="diag">    0.04    0.04</time>
   <time name="diis">    0.02    0.02</time>
   <time name="orth">    0.00    0.00</time>
   <time name="total">    0.07    0.08</time>
   <energy>
    <i name="e_fr_energy">    -41.68761252 </i>
    <i name="e_wo_entrp">    -41.68761252 </i>
    <i name="e_0_energy">    -41.68761252 </i>
   </energy>
  </scstep>
  <scstep>
   <time name="diag">    0.04    0.04</time>
   <time name="diis">    0.02    0.02</time>
   <time name="orth">    0.00    0.00</time>
   <time name="total">    0.08    0.08</time>
   <energy>
    <i name="e_fr_energy">    -41.68761255 </i>
    <i name="e_wo_entrp">    -41.68761255 </i>
    <i name="e_0_energy">    -41.68761255 </i>
   </energy>
  </scstep>
  <scstep>
   <time name="diag">    0.04    0.04</time>
   <time name="diis">    0.02    0.02</time>
   <time name="orth">    0.00    0.00</time>
   <time name="total">    0.07    0.08</time>
   <energy>
    <i name="e_fr_energy">    -41.68761253 </i>
    <i name="e_wo_entrp">    -41.68761253 </i>
    <i name="e_0_energy">    -41.68761253 </i>
   </energy>
  </scstep>
  <scstep>
   <time name="diag">    0.04    0.04</time>
   <time name="diis">    0.02    0.02</time>
   <time name="orth">    0.00    0.00</time>
   <time name="total">    0.07    0.08</time>
   <energy>
    <i name="e_fr_energy">    -41.68761257 </i>
    <i name="e_wo_entrp">    -41.68761257 </i>
    <i name="e_0_energy">    -41.68761257 </i>
   </energy>
  </scstep>
  <scstep>
   <time name="diag">    0.04    0.04</time>
   <time name="diis">    0.02    0.02</time>
   <time name="orth">    0.00    0.00</time>
   <time name="total">    0.07    0.08</time>
   <energy>
    <i name="e_fr_energy">    -41.68761256 </i>
    <i name="e_wo_entrp">    -41.68761256 </i>
    <i name="e_0_energy">    -41.68761256 </i>
   </energy>
  </scstep>
  <scstep>
   <time name="diag">    0.04    0.04</time>
   <time name="diis">    0.02    0.02</time>
   <time name="orth">    0.00    0.00</time>
   <time name="total">    0.09    0.09</time>
   <energy>
    <i name="e_fr_energy">    -41.68761262 </i>
    <i name="e_wo_entrp">    -41.68761262 </i>
    <i name="e_0_energy">    -41.68761262 </i>
   </energy>
  </scstep>
  <scstep>
   <time name="diag">    0.04    0.04</time>
   <time name="diis">    0.02    0.02</time>
   <time name="orth">    0.00    0.00</time>
   <time name="total">    0.08    0.08</time>
   <energy>
    <i name="e_fr_energy">    -41.68761263 </i>
    <i name="e_wo_entrp">    -41.68761263 </i>
    <i name="e_0_energy">    -41.68761263 </i>
   </energy>
  </scstep>
  <scstep>
   <time name="diag">    0.04    0.04</time>
   <time name="diis">    0.02    0.02</time>
   <time name="orth">    0.00    0.00</time>
   <time name="total">    0.07    0.08</time>
   <energy>
    <i name="e_fr_energy">    -41.68761271 </i>
    <i name="e_wo_entrp">    -41.68761271 </i>
    <i name="e_0_energy">    -41.68761271 </i>
   </energy>
  </scstep>
  <scstep>
   <time name="diag">    0.04    0.04</time>
   <time name="diis">    0.02    0.02</time>
   <time name="orth">    0.00    0.00</time>
   <time name="total">    0.07    0.08</time>
   <energy>
    <i name="e_fr_energy">    -41.68761274 </i>
    <i name="e_wo_entrp">    -41.68761274 </i>
    <i name="e_0_energy">    -41.68761274 </i>
   </energy>
  </scstep>
  <scstep>
   <time name="diag">    0.04    0.04</time>
   <time name="diis">    0.02    0.02</time>
   <time name="orth">    0.00    0.00</time>
   <time name="total">    0.07    0.08</time>
   <energy>
    <i name="e_fr_energy">    -41.68761284 </i>
    <i name="e_wo_entrp">    -41.68761284 </i>
    <i name="e_0_energy">    -41.68761284 </i>
   </energy>
  </scstep>
  <scstep>
   <time name="diag">    0.04    0.04</time>
   <time name="diis">    0.02    0.02</time>
   <time name="orth">    0.00    0.00</time>
   <time name="total">    0.07    0.08</time>
   <energy>
    <i name="e_fr_energy">    -41.68761289 </i>
    <i name="e_wo_entrp">    -41.68761289 </i>
    <i name="e_0_energy">    -41.68761289 </i>
   </energy>
  </scstep>
  <scstep>
   <time name="diag">    0.04    0.04</time>
   <time name="diis">    0.03    0.03</time>
   <time name="orth">    0.00    0.00</time>
   <time name="total">    0.08    0.09</time>
   <energy>
    <i name="e_fr_energy">    -41.68761301 </i>
    <i name="e_wo_entrp">    -41.68761301 </i>
    <i name="e_0_energy">    -41.68761301 </i>
   </energy>
  </scstep>
  <scstep>
   <time name="diag">    0.04    0.04</time>
   <time name="diis">    0.02    0.02</time>
   <time name="orth">    0.00    0.00</time>
   <time name="total">    0.07    0.08</time>
   <energy>
    <i name="e_fr_energy">    -41.68761308 </i>
    <i name="e_wo_entrp">    -41.68761308 </i>
    <i name="e_0_energy">    -41.68761308 </i>
   </energy>
  </scstep>
  <scstep>
   <time name="diag">    0.04    0.04</time>
   <time name="diis">    0.02    0.02</time>
   <time name="orth">    0.00    0.00</time>
   <time name="total">    0.07    0.08</time>
   <energy>
    <i name="e_fr_energy">    -41.68761321 </i>
    <i name="e_wo_entrp">    -41.68761321 </i>
    <i name="e_0_energy">    -41.68761321 </i>
   </energy>
  </scstep>
  <scstep>
   <time name="diag">    0.04    0.04</time>
   <time name="diis">    0.03    0.03</time>
   <time name="orth">    0.00    0.00</time>
   <time name="total">    0.08    0.08</time>
   <energy>
    <i name="e_fr_energy">    -41.68761332 </i>
    <i name="e_wo_entrp">    -41.68761332 </i>
    <i name="e_0_energy">    -41.68761332 </i>
   </energy>
  </scstep>
  <scstep>
   <time name="diag">    0.04    0.04</time>
   <time name="diis">    0.03    0.03</time>
   <time name="orth">    0.00    0.00</time>
   <time name="total">    0.09    0.09</time>
   <energy>
    <i name="e_fr_energy">    -41.68761346 </i>
    <i name="e_wo_entrp">    -41.68761346 </i>
    <i name="e_0_energy">    -41.68761346 </i>
   </energy>
  </scstep>
  <scstep>
   <time name="diag">    0.04    0.04</time>
   <time name="diis">    0.03    0.03</time>
   <time name="orth">    0.00    0.00</time>
   <time name="total">    0.08    0.08</time>
   <energy>
    <i name="e_fr_energy">    -41.68761358 </i>
    <i name="e_wo_entrp">    -41.68761358 </i>
    <i name="e_0_energy">    -41.68761358 </i>
   </energy>
  </scstep>
  <scstep>
   <time name="diag">    0.04    0.04</time>
   <time name="diis">    0.02    0.02</time>
   <time name="orth">    0.00    0.00</time>
   <time name="total">    0.08    0.08</time>
   <energy>
    <i name="e_fr_energy">    -41.68761374 </i>
    <i name="e_wo_entrp">    -41.68761374 </i>
    <i name="e_0_energy">    -41.68761374 </i>
   </energy>
  </scstep>
  <scstep>
   <time name="diag">    0.04    0.04</time>
   <time name="diis">    0.02    0.02</time>
   <time name="orth">    0.00    0.00</time>
   <time name="total">    0.07    0.08</time>
   <energy>
    <i name="e_fr_energy">    -41.68761387 </i>
    <i name="e_wo_entrp">    -41.68761387 </i>
    <i name="e_0_energy">    -41.68761387 </i>
   </energy>
  </scstep>
  <scstep>
   <time name="diag">    0.04    0.04</time>
   <time name="diis">    0.02    0.02</time>
   <time name="orth">    0.00    0.00</time>
   <time name="total">    0.07    0.08</time>
   <energy>
    <i name="e_fr_energy">    -41.68761405 </i>
    <i name="e_wo_entrp">    -41.68761405 </i>
    <i name="e_0_energy">    -41.68761405 </i>
   </energy>
  </scstep>
  <scstep>
   <time name="diag">    0.04    0.04</time>
   <time name="diis">    0.02    0.02</time>
   <time name="orth">    0.00    0.00</time>
   <time name="total">    0.07    0.08</time>
   <energy>
    <i name="e_fr_energy">    -41.68761420 </i>
    <i name="e_wo_entrp">    -41.68761420 </i>
    <i name="e_0_energy">    -41.68761420 </i>
   </energy>
  </scstep>
  <scstep>
   <time name="diag">    0.04    0.04</time>
   <time name="diis">    0.02    0.02</time>
   <time name="orth">    0.00    0.00</time>
   <time name="total">    0.08    0.08</time>
   <energy>
    <i name="e_fr_energy">    -41.68761436 </i>
    <i name="e_wo_entrp">    -41.68761436 </i>
    <i name="e_0_energy">    -41.68761436 </i>
   </energy>
  </scstep>
  <scstep>
   <time name="diag">    0.04    0.04</time>
   <time name="diis">    0.02    0.02</time>
   <time name="orth">    0.00    0.00</time>
   <time name="total">    0.07    0.08</time>
   <energy>
    <i name="e_fr_energy">    -41.68761452 </i>
    <i name="e_wo_entrp">    -41.68761452 </i>
    <i name="e_0_energy">    -41.68761452 </i>
   </energy>
  </scstep>
  <scstep>
   <time name="diag">    0.04    0.04</time>
   <time name="diis">    0.02    0.02</time>
   <time name="orth">    0.00    0.00</time>
   <time name="total">    0.08    0.08</time>
   <energy>
    <i name="e_fr_energy">    -41.68761470 </i>
    <i name="e_wo_entrp">    -41.68761470 </i>
    <i name="e_0_energy">    -41.68761470 </i>
   </energy>
  </scstep>
  <scstep>
   <time name="diag">    0.04    0.04</time>
   <time name="diis">    0.02    0.02</time>
   <time name="orth">    0.00    0.00</time>
   <time name="total">    0.07    0.08</time>
   <energy>
    <i name="e_fr_energy">    -41.68761486 </i>
    <i name="e_wo_entrp">    -41.68761486 </i>
    <i name="e_0_energy">    -41.68761486 </i>
   </energy>
  </scstep>
  <scstep>
   <time name="diag">    0.04    0.04</time>
   <time name="diis">    0.02    0.02</time>
   <time name="orth">    0.00    0.00</time>
   <time name="total">    0.07    0.08</time>
   <energy>
    <i name="e_fr_energy">    -41.68761503 </i>
    <i name="e_wo_entrp">    -41.68761503 </i>
    <i name="e_0_energy">    -41.68761503 </i>
   </energy>
  </scstep>
  <scstep>
   <time name="diag">    0.04    0.04</time>
   <time name="diis">    0.03    0.03</time>
   <time name="orth">    0.00    0.00</time>
   <time name="total">    0.08    0.09</time>
   <energy>
    <i name="e_fr_energy">    -41.68761523 </i>
    <i name="e_wo_entrp">    -41.68761523 </i>
    <i name="e_0_energy">    -41.68761523 </i>
   </energy>
  </scstep>
  <scstep>
   <time name="diag">    0.04    0.04</time>
   <time name="diis">    0.03    0.03</time>
   <time name="orth">    0.00    0.00</time>
   <time name="total">    0.08    0.09</time>
   <energy>
    <i name="e_fr_energy">    -41.68761543 </i>
    <i name="e_wo_entrp">    -41.68761543 </i>
    <i name="e_0_energy">    -41.68761543 </i>
   </energy>
  </scstep>
  <scstep>
   <time name="diag">    0.04    0.04</time>
   <time name="diis">    0.02    0.02</time>
   <time name="orth">    0.00    0.00</time>
   <time name="total">    0.07    0.08</time>
   <energy>
    <i name="e_fr_energy">    -41.68761558 </i>
    <i name="e_wo_entrp">    -41.68761558 </i>
    <i name="e_0_energy">    -41.68761558 </i>
   </energy>
  </scstep>
  <scstep>
   <time name="diag">    0.04    0.04</time>
   <time name="diis">    0.02    0.02</time>
   <time name="orth">    0.00    0.00</time>
   <time name="total">    0.07    0.08</time>
   <energy>
    <i name="e_fr_energy">    -41.68761575 </i>
    <i name="e_wo_entrp">    -41.68761575 </i>
    <i name="e_0_energy">    -41.68761575 </i>
   </energy>
  </scstep>
  <scstep>
   <time name="diag">    0.04    0.04</time>
   <time name="diis">    0.02    0.02</time>
   <time name="orth">    0.00    0.00</time>
   <time name="total">    0.08    0.08</time>
   <energy>
    <i name="e_fr_energy">    -41.68761588 </i>
    <i name="e_wo_entrp">    -41.68761588 </i>
    <i name="e_0_energy">    -41.68761588 </i>
   </energy>
  </scstep>
  <scstep>
   <time name="diag">    0.04    0.04</time>
   <time name="diis">    0.04    0.04</time>
   <time name="orth">    0.00    0.00</time>
   <time name="total">    0.10    0.10</time>
   <energy>
    <i name="e_fr_energy">    -41.68761637 </i>
    <i name="e_wo_entrp">    -41.68761637 </i>
    <i name="e_0_energy">    -41.68761637 </i>
   </energy>
  </scstep>
  <scstep>
   <time name="diag">    0.04    0.04</time>
   <time name="diis">    0.02    0.02</time>
   <time name="orth">    0.00    0.00</time>
   <time name="total">    0.08    0.08</time>
   <energy>
    <i name="e_fr_energy">    -41.68761648 </i>
    <i name="e_wo_entrp">    -41.68761648 </i>
    <i name="e_0_energy">    -41.68761648 </i>
   </energy>
  </scstep>
  <scstep>
   <time name="diag">    0.04    0.04</time>
   <time name="diis">    0.03    0.03</time>
   <time name="orth">    0.00    0.00</time>
   <time name="total">    0.08    0.09</time>
   <energy>
    <i name="e_fr_energy">    -41.68761661 </i>
    <i name="e_wo_entrp">    -41.68761661 </i>
    <i name="e_0_energy">    -41.68761661 </i>
   </energy>
  </scstep>
  <scstep>
   <time name="diag">    0.04    0.04</time>
   <time name="diis">    0.02    0.02</time>
   <time name="orth">    0.00    0.00</time>
   <time name="total">    0.07    0.08</time>
   <energy>
    <i name="e_fr_energy">    -41.68761672 </i>
    <i name="e_wo_entrp">    -41.68761672 </i>
    <i name="e_0_energy">    -41.68761672 </i>
   </energy>
  </scstep>
  <scstep>
   <time name="diag">    0.04    0.04</time>
   <time name="diis">    0.02    0.02</time>
   <time name="orth">    0.00    0.00</time>
   <time name="total">    0.07    0.08</time>
   <energy>
    <i name="e_fr_energy">    -41.68761680 </i>
    <i name="e_wo_entrp">    -41.68761680 </i>
    <i name="e_0_energy">    -41.68761680 </i>
   </energy>
  </scstep>
  <scstep>
   <time name="diag">    0.04    0.04</time>
   <time name="diis">    0.03    0.03</time>
   <time name="orth">    0.00    0.00</time>
   <time name="total">    0.08    0.09</time>
   <energy>
    <i name="e_fr_energy">    -41.68761682 </i>
    <i name="e_wo_entrp">    -41.68761682 </i>
    <i name="e_0_energy">    -41.68761682 </i>
   </energy>
  </scstep>
  <scstep>
   <time name="diag">    0.04    0.04</time>
   <time name="diis">    0.02    0.02</time>
   <time name="orth">    0.00    0.00</time>
   <time name="total">    0.08    0.08</time>
   <energy>
    <i name="e_fr_energy">    -41.68761689 </i>
    <i name="e_wo_entrp">    -41.68761689 </i>
    <i name="e_0_energy">    -41.68761689 </i>
   </energy>
  </scstep>
  <scstep>
   <time name="diag">    0.04    0.04</time>
   <time name="diis">    0.03    0.03</time>
   <time name="orth">    0.00    0.00</time>
   <time name="total">    0.08    0.09</time>
   <energy>
    <i name="e_fr_energy">    -41.68761694 </i>
    <i name="e_wo_entrp">    -41.68761694 </i>
    <i name="e_0_energy">    -41.68761694 </i>
   </energy>
  </scstep>
  <scstep>
   <time name="diag">    0.04    0.04</time>
   <time name="diis">    0.03    0.03</time>
   <time name="orth">    0.00    0.00</time>
   <time name="total">    0.08    0.08</time>
   <energy>
    <i name="e_fr_energy">    -41.68761699 </i>
    <i name="e_wo_entrp">    -41.68761699 </i>
    <i name="e_0_energy">    -41.68761699 </i>
   </energy>
  </scstep>
  <scstep>
   <time name="diag">    0.04    0.04</time>
   <time name="diis">    0.02    0.02</time>
   <time name="orth">    0.00    0.00</time>
   <time name="total">    0.07    0.08</time>
   <energy>
    <i name="e_fr_energy">    -41.68761701 </i>
    <i name="e_wo_entrp">    -41.68761701 </i>
    <i name="e_0_energy">    -41.68761701 </i>
   </energy>
  </scstep>
  <scstep>
   <time name="diag">    0.04    0.04</time>
   <time name="diis">    0.03    0.03</time>
   <time name="orth">    0.00    0.00</time>
   <time name="total">    0.08    0.08</time>
   <energy>
    <i name="e_fr_energy">    -41.68761702 </i>
    <i name="e_wo_entrp">    -41.68761702 </i>
    <i name="e_0_energy">    -41.68761702 </i>
   </energy>
  </scstep>
  <scstep>
   <time name="diag">    0.04    0.04</time>
   <time name="diis">    0.02    0.02</time>
   <time name="orth">    0.00    0.00</time>
   <time name="total">    0.08    0.08</time>
   <energy>
    <i name="e_fr_energy">    -41.68761703 </i>
    <i name="e_wo_entrp">    -41.68761703 </i>
    <i name="e_0_energy">    -41.68761703 </i>
   </energy>
  </scstep>
  <scstep>
   <time name="diag">    0.04    0.04</time>
   <time name="diis">    0.02    0.02</time>
   <time name="orth">    0.00    0.00</time>
   <time name="total">    0.07    0.08</time>
   <energy>
    <i name="e_fr_energy">    -41.68761704 </i>
    <i name="e_wo_entrp">    -41.68761704 </i>
    <i name="e_0_energy">    -41.68761704 </i>
   </energy>
  </scstep>
  <scstep>
   <time name="diag">    0.04    0.04</time>
   <time name="diis">    0.02    0.02</time>
   <time name="orth">    0.00    0.00</time>
   <time name="total">    0.08    0.08</time>
   <energy>
    <i name="e_fr_energy">    -41.68761704 </i>
    <i name="e_wo_entrp">    -41.68761704 </i>
    <i name="e_0_energy">    -41.68761704 </i>
   </energy>
  </scstep>
  <scstep>
   <time name="diag">    0.04    0.04</time>
   <time name="diis">    0.02    0.02</time>
   <time name="orth">    0.00    0.00</time>
   <time name="total">    0.07    0.07</time>
   <energy>
    <i name="alphaZ">    240.34259355 </i>
    <i name="ewald">  -2693.37944630 </i>
    <i name="hartreedc">   -710.91872987 </i>
    <i name="XCdc">    161.77356104 </i>
    <i name="pawpsdc">   4601.67957858 </i>
    <i name="pawaedc">  -4588.51408377 </i>
    <i name="eentropy">     -0.00000000 </i>
    <i name="bandstr">   -334.81289283 </i>
    <i name="atom">   3282.14180256 </i>
    <i name="e_fr_energy">    -41.68761703 </i>
    <i name="e_wo_entrp">    -41.68761703 </i>
    <i name="e_0_energy">    -41.68761703 </i>
   </energy>
  </scstep>
  <structure>
   <crystal>
    <varray name="basis" >
     <v>       4.19200000       0.00000000       0.00000000 </v>
     <v>       0.00000000       4.19200000       0.00000000 </v>
     <v>       0.00000000       0.00000000       4.19200000 </v>
    </varray>
    <i name="volume">     73.66544589 </i>
    <varray name="rec_basis" >
     <v>       0.23854962       0.00000000       0.00000000 </v>
     <v>       0.00000000       0.23854962       0.00000000 </v>
     <v>       0.00000000       0.00000000       0.23854962 </v>
    </varray>
   </crystal>
   <varray name="positions" >
    <v>       0.00000000       0.00000000       0.00000000 </v>
    <v>       0.50000000       0.50000000       0.50000000 </v>
    <v>       0.50000000       0.50000000       0.00000000 </v>
    <v>       0.50000000       0.00000000       0.50000000 </v>
    <v>       0.00000000       0.50000000       0.50000000 </v>
   </varray>
  </structure>
  <varray name="forces" >
   <v>      -0.00000000      -0.00000000      -0.00000000 </v>
   <v>       0.00000000       0.00000000       0.00000000 </v>
   <v>       0.00000000       0.00000000      -0.00000000 </v>
   <v>      -0.00000000      -0.00000000       0.00000000 </v>
   <v>      -0.00000000       0.00000000      -0.00000000 </v>
  </varray>
  <varray name="stress" >
   <v>      49.83979496       0.00000000       0.00000000 </v>
   <v>       0.00000000      49.83979496       0.00000000 </v>
   <v>      -0.00000000       0.00000000      49.83979496 </v>
  </varray>
  <energy>
   <i name="e_fr_energy">    -41.68761703 </i>
   <i name="e_wo_entrp">    -41.68761703 </i>
   <i name="e_0_energy">    -41.68761703 </i>
  </energy>
  <time name="totalsc">   11.38   12.31</time>
  <eigenvalues>
   <array>
    <dimension dim="1">band</dimension>
    <dimension dim="2">kpoint</dimension>
    <dimension dim="3">spin</dimension>
    <field>eigene</field>
    <field>occ</field>
    <set>
     <set comment="spin 1">
      <set comment="kpoint 1">
       <r>  -43.2345    1.0000 </r>
       <r>  -21.5627    1.0000 </r>
       <r>  -21.4047    1.0000 </r>
       <r>  -21.4047    1.0000 </r>
       <r>  -21.3665    1.0000 </r>
       <r>  -12.5628    1.0000 </r>
       <r>  -12.2731    1.0000 </r>
       <r>  -12.2731    1.0000 </r>
       <r>   -6.6703    1.0000 </r>
       <r>   -6.6703    1.0000 </r>
       <r>   -6.6281    1.0000 </r>
       <r>    2.1656    1.0000 </r>
       <r>    2.2905    1.0000 </r>
       <r>    2.2905    1.0000 </r>
       <r>    2.6261    1.0000 </r>
       <r>    2.6261    1.0000 </r>
       <r>    2.8347    1.0000 </r>
       <r>    3.3611    1.0000 </r>
       <r>    3.4462    1.0000 </r>
       <r>    3.4462    1.0000 </r>
       <r>    7.1618    0.0000 </r>
       <r>    7.1733    0.0000 </r>
       <r>    7.1733    0.0000 </r>
       <r>    8.6403    0.0000 </r>
      </set>
      <set comment="kpoint 2">
       <r>  -43.2335    1.0000 </r>
       <r>  -21.6256    1.0000 </r>
       <r>  -21.4181    1.0000 </r>
       <r>  -21.4028    1.0000 </r>
       <r>  -21.3414    1.0000 </r>
       <r>  -12.5666    1.0000 </r>
       <r>  -12.2659    1.0000 </r>
       <r>  -12.0700    1.0000 </r>
       <r>   -6.6660    1.0000 </r>
       <r>   -6.6567    1.0000 </r>
       <r>   -6.5684    1.0000 </r>
       <r>    1.7206    1.0000 </r>
       <r>    2.0961    1.0000 </r>
       <r>    2.1997    1.0000 </r>
       <r>    2.2825    1.0000 </r>
       <r>    2.3654    1.0000 </r>
       <r>    2.7647    1.0000 </r>
       <r>    2.8487    1.0000 </r>
       <r>    3.3375    1.0000 </r>
       <r>    3.3568    1.0000 </r>
       <r>    7.2721    0.0000 </r>
       <r>    7.7548    0.0000 </r>
       <r>    7.7872    0.0000 </r>
       <r>    9.1207    0.0000 </r>
      </set>
      <set comment="kpoint 3">
       <r>  -43.2323    1.0000 </r>
       <r>  -21.7178    1.0000 </r>
       <r>  -21.4098    1.0000 </r>
       <r>  -21.4001    1.0000 </r>
       <r>  -21.3264    1.0000 </r>
       <r>  -12.6390    1.0000 </r>
       <r>  -12.2560    1.0000 </r>
       <r>  -11.6948    1.0000 </r>
       <r>   -6.6374    1.0000 </r>
       <r>   -6.6285    1.0000 </r>
       <r>   -6.5158    1.0000 </r>
       <r>    0.8702    1.0000 </r>
       <r>    1.7844    1.0000 </r>
       <r>    1.9723    1.0000 </r>
       <r>    2.0275    1.0000 </r>
       <r>    2.0494    1.0000 </r>
       <r>    2.5702    1.0000 </r>
       <r>    2.5706    1.0000 </r>
       <r>    3.2482    1.0000 </r>
       <r>    3.2652    1.0000 </r>
       <r>    7.4313    0.0000 </r>
       <r>    8.6417    0.0000 </r>
       <r>    8.6758    0.0000 </r>
       <r>    9.8214    0.0000 </r>
      </set>
      <set comment="kpoint 4">
       <r>  -43.2313    1.0000 </r>
       <r>  -21.7814    1.0000 </r>
       <r>  -21.3999    1.0000 </r>
       <r>  -21.3982    1.0000 </r>
       <r>  -21.3193    1.0000 </r>
       <r>  -12.6987    1.0000 </r>
       <r>  -12.2487    1.0000 </r>
       <r>  -11.4019    1.0000 </r>
       <r>   -6.6237    1.0000 </r>
       <r>   -6.5884    1.0000 </r>
       <r>   -6.4925    1.0000 </r>
       <r>    0.2221    1.0000 </r>
       <r>    1.5806    1.0000 </r>
       <r>    1.8150    1.0000 </r>
       <r>    1.8430    1.0000 </r>
       <r>    1.9174    1.0000 </r>
       <r>    2.4300    1.0000 </r>
       <r>    2.4572    1.0000 </r>
       <r>    3.1955    1.0000 </r>
       <r>    3.2176    1.0000 </r>
       <r>    7.5610    0.0000 </r>
       <r>    9.3821    0.0000 </r>
       <r>   10.1668    0.0000 </r>
       <r>   11.0418    0.0000 </r>
      </set>
      <set comment="kpoint 5">
       <r>  -43.2326    1.0000 </r>
       <r>  -21.6372    1.0000 </r>
       <r>  -21.4726    1.0000 </r>
       <r>  -21.4051    1.0000 </r>
       <r>  -21.3251    1.0000 </r>
       <r>  -12.5080    1.0000 </r>
       <r>  -12.1161    1.0000 </r>
       <r>  -12.0570    1.0000 </r>
       <r>   -6.7022    1.0000 </r>
       <r>   -6.6490    1.0000 </r>
       <r>   -6.5126    1.0000 </r>
       <r>    1.4610    1.0000 </r>
       <r>    1.7988    1.0000 </r>
       <r>    1.8907    1.0000 </r>
       <r>    2.0626    1.0000 </r>
       <r>    2.1628    1.0000 </r>
       <r>    2.6161    1.0000 </r>
       <r>    2.8755    1.0000 </r>
       <r>    3.1638    1.0000 </r>
       <r>    3.2383    1.0000 </r>
       <r>    7.8376    0.0000 </r>
       <r>    7.8793    0.0000 </r>
       <r>    8.1666    0.0000 </r>
       <r>    9.6566    0.0000 </r>
      </set>
      <set comment="kpoint 6">
       <r>  -43.2314    1.0000 </r>
       <r>  -21.6936    1.0000 </r>
       <r>  -21.4867    1.0000 </r>
       <r>  -21.4015    1.0000 </r>
       <r>  -21.3283    1.0000 </r>
       <r>  -12.5268    1.0000 </r>
       <r>  -12.0984    1.0000 </r>
       <r>  -11.7221    1.0000 </r>
       <r>   -6.7004    1.0000 </r>
       <r>   -6.6281    1.0000 </r>
       <r>   -6.4977    1.0000 </r>
       <r>    0.8309    1.0000 </r>
       <r>    1.2158    1.0000 </r>
       <r>    1.6786    1.0000 </r>
       <r>    1.8888    1.0000 </r>
       <r>    1.9053    1.0000 </r>
       <r>    2.4780    1.0000 </r>
       <r>    2.8137    1.0000 </r>
       <r>    3.1282    1.0000 </r>
       <r>    3.1519    1.0000 </r>
       <r>    8.0001    0.0000 </r>
       <r>    8.6949    0.0000 </r>
       <r>    8.9744    0.0000 </r>
       <r>   10.4523    0.0000 </r>
      </set>
      <set comment="kpoint 7">
       <r>  -43.2304    1.0000 </r>
       <r>  -21.7486    1.0000 </r>
       <r>  -21.4715    1.0000 </r>
       <r>  -21.3973    1.0000 </r>
       <r>  -21.3399    1.0000 </r>
       <r>  -12.5601    1.0000 </r>
       <r>  -12.0992    1.0000 </r>
       <r>  -11.4343    1.0000 </r>
       <r>   -6.6784    1.0000 </r>
       <r>   -6.5900    1.0000 </r>
       <r>   -6.5314    1.0000 </r>
       <r>    0.2041    1.0000 </r>
       <r>    0.9489    1.0000 </r>
       <r>    1.6199    1.0000 </r>
       <r>    1.7272    1.0000 </r>
       <r>    1.7823    1.0000 </r>
       <r>    2.4790    1.0000 </r>
       <r>    2.7281    1.0000 </r>
       <r>    3.0748    1.0000 </r>
       <r>    3.0886    1.0000 </r>
       <r>    8.1089    0.0000 </r>
       <r>    9.3826    0.0000 </r>
       <r>    9.6467    0.0000 </r>
       <r>   11.2745    0.0000 </r>
      </set>
      <set comment="kpoint 8">
       <r>  -43.2301    1.0000 </r>
       <r>  -21.6702    1.0000 </r>
       <r>  -21.5655    1.0000 </r>
       <r>  -21.3987    1.0000 </r>
       <r>  -21.3511    1.0000 </r>
       <r>  -12.4661    1.0000 </r>
       <r>  -11.7779    1.0000 </r>
       <r>  -11.7418    1.0000 </r>
       <r>   -6.7397    1.0000 </r>
       <r>   -6.6354    1.0000 </r>
       <r>   -6.5106    1.0000 </r>
       <r>    0.6453    1.0000 </r>
       <r>    0.8163    1.0000 </r>
       <r>    0.9248    1.0000 </r>
       <r>    1.6911    1.0000 </r>
       <r>    1.6924    1.0000 </r>
       <r>    2.4411    1.0000 </r>
       <r>    2.8562    1.0000 </r>
       <r>    3.0083    1.0000 </r>
       <r>    3.4012    1.0000 </r>
       <r>    8.7962    0.0000 </r>
       <r>    8.8078    0.0000 </r>
       <r>    9.1903    0.0000 </r>
       <r>   11.2159    0.0000 </r>
      </set>
      <set comment="kpoint 9">
       <r>  -43.2292    1.0000 </r>
       <r>  -21.6939    1.0000 </r>
       <r>  -21.5678    1.0000 </r>
       <r>  -21.3954    1.0000 </r>
       <r>  -21.3793    1.0000 </r>
       <r>  -12.4505    1.0000 </r>
       <r>  -11.7830    1.0000 </r>
       <r>  -11.4803    1.0000 </r>
       <r>   -6.7332    1.0000 </r>
       <r>   -6.6670    1.0000 </r>
       <r>   -6.5249    1.0000 </r>
       <r>    0.1844    1.0000 </r>
       <r>    0.4267    1.0000 </r>
       <r>    0.8384    1.0000 </r>
       <r>    1.5491    1.0000 </r>
       <r>    1.5627    1.0000 </r>
       <r>    2.6057    1.0000 </r>
       <r>    2.7864    1.0000 </r>
       <r>    2.9517    1.0000 </r>
       <r>    3.4925    1.0000 </r>
       <r>    8.8678    0.0000 </r>
       <r>    9.3975    0.0000 </r>
       <r>    9.7318    0.0000 </r>
       <r>   12.1352    0.0000 </r>
      </set>
      <set comment="kpoint 10">
       <r>  -43.2283    1.0000 </r>
       <r>  -21.6469    1.0000 </r>
       <r>  -21.6291    1.0000 </r>
       <r>  -21.4216    1.0000 </r>
       <r>  -21.3923    1.0000 </r>
       <r>  -12.4031    1.0000 </r>
       <r>  -11.5155    1.0000 </r>
       <r>  -11.5109    1.0000 </r>
       <r>   -6.7583    1.0000 </r>
       <r>   -6.7356    1.0000 </r>
       <r>   -6.5129    1.0000 </r>
       <r>    0.1351    1.0000 </r>
       <r>    0.1450    1.0000 </r>
       <r>    0.2305    1.0000 </r>
       <r>    1.4163    1.0000 </r>
       <r>    1.4215    1.0000 </r>
       <r>    2.7950    1.0000 </r>
       <r>    2.8817    1.0000 </r>
       <r>    2.8893    1.0000 </r>
       <r>    3.6690    1.0000 </r>
[...]
       <r>   10.2395    0.0000 </r>
       <r>   12.9758    0.0000 </r>
      </set>
      <set comment="kpoint 17">
       <r>  -43.2279    1.0000 </r>
       <r>  -21.6200    1.0000 </r>
       <r>  -21.5597    1.0000 </r>
       <r>  -21.5597    1.0000 </r>
       <r>  -21.3772    1.0000 </r>
       <r>  -11.8944    1.0000 </r>
       <r>  -11.6908    1.0000 </r>
       <r>  -11.6908    1.0000 </r>
       <r>   -6.9119    1.0000 </r>
       <r>   -6.9119    1.0000 </r>
       <r>   -6.6117    1.0000 </r>
       <r>    0.6570    1.0000 </r>
       <r>    0.8131    1.0000 </r>
       <r>    0.8131    1.0000 </r>
       <r>    1.2255    1.0000 </r>
       <r>    1.3645    1.0000 </r>
       <r>    1.3645    1.0000 </r>
       <r>    3.2202    1.0000 </r>
       <r>    3.2202    1.0000 </r>
       <r>    3.4566    1.0000 </r>
       <r>    9.3695    0.0000 </r>
       <r>    9.3695    0.0000 </r>
       <r>   11.2189    0.0000 </r>
       <r>   11.3722    0.0000 </r>
      </set>
      <set comment="kpoint 18">
       <r>  -43.2270    1.0000 </r>
       <r>  -21.6480    1.0000 </r>
       <r>  -21.5634    1.0000 </r>
       <r>  -21.5573    1.0000 </r>
       <r>  -21.3986    1.0000 </r>
       <r>  -11.8353    1.0000 </r>
       <r>  -11.6690    1.0000 </r>
       <r>  -11.4560    1.0000 </r>
       <r>   -6.9828    1.0000 </r>
       <r>   -6.9275    1.0000 </r>
       <r>   -6.7463    1.0000 </r>
       <r>    0.1902    1.0000 </r>
       <r>    0.7547    1.0000 </r>
       <r>    0.8130    1.0000 </r>
       <r>    1.0040    1.0000 </r>
       <r>    1.2867    1.0000 </r>
       <r>    1.4327    1.0000 </r>
       <r>    3.2205    1.0000 </r>
       <r>    3.3862    1.0000 </r>
       <r>    3.5453    1.0000 </r>
       <r>    9.4764    0.0000 </r>
       <r>    9.7536    0.0000 </r>
       <r>    9.9644    0.0000 </r>
       <r>   10.7639    0.0000 </r>
      </set>
      <set comment="kpoint 19">
       <r>  -43.2261    1.0000 </r>
       <r>  -21.6288    1.0000 </r>
       <r>  -21.6229    1.0000 </r>
       <r>  -21.5564    1.0000 </r>
       <r>  -21.4101    1.0000 </r>
       <r>  -11.7310    1.0000 </r>
       <r>  -11.4528    1.0000 </r>
       <r>  -11.4415    1.0000 </r>
       <r>   -7.0291    1.0000 </r>
       <r>   -7.0163    1.0000 </r>
       <r>   -6.8997    1.0000 </r>
       <r>    0.1436    1.0000 </r>
       <r>    0.2644    1.0000 </r>
       <r>    0.8559    1.0000 </r>
       <r>    0.9544    1.0000 </r>
       <r>    1.2975    1.0000 </r>
       <r>    1.3051    1.0000 </r>
       <r>    3.4217    1.0000 </r>
       <r>    3.4550    1.0000 </r>
       <r>    3.7081    1.0000 </r>
       <r>    9.7495    0.0000 </r>
       <r>    9.8159    0.0000 </r>
       <r>   10.1061    0.0000 </r>
       <r>   10.5408    0.0000 </r>
      </set>
      <set comment="kpoint 20">
       <r>  -43.2252    1.0000 </r>
       <r>  -21.6219    1.0000 </r>
       <r>  -21.6203    1.0000 </r>
       <r>  -21.6203    1.0000 </r>
       <r>  -21.4054    1.0000 </r>
       <r>  -11.4437    1.0000 </r>
       <r>  -11.4114    1.0000 </r>
       <r>  -11.4114    1.0000 </r>
       <r>   -7.1209    1.0000 </r>
       <r>   -7.1209    1.0000 </r>
       <r>   -7.0681    1.0000 </r>
       <r>    0.1474    1.0000 </r>
       <r>    0.1474    1.0000 </r>
       <r>    0.3947    1.0000 </r>
       <r>    1.1443    1.0000 </r>
       <r>    1.2538    1.0000 </r>
       <r>    1.2538    1.0000 </r>
       <r>    3.6862    1.0000 </r>
       <r>    3.6862    1.0000 </r>
       <r>    3.7429    1.0000 </r>
       <r>    9.7660    0.0000 </r>
       <r>    9.8750    0.0000 </r>
       <r>    9.8750    0.0000 </r>
       <r>   11.1339    0.0000 </r>
      </set>
     </set>
    </set>
   </array>
  </eigenvalues>
  <separator name="orbital magnetization" >
   <v name="MAGDIPOLOUT">      0.00000000      0.00000000      0.00000000</v>
  </separator>
  <dos>
   <i name="efermi">      4.06415425 </i>
   <total>
    <array>
     <dimension dim="1">gridpoints</dimension>
     <dimension dim="2">spin</dimension>
     <field>energy</field>
     <field>total</field>
     <field>integrated</field>
     <set>
      <set comment="spin 1">
       <r>   -46.0450     0.0000     0.0000 </r>
       <r>   -45.8389     0.0000     0.0000 </r>
       <r>   -45.6328     0.0000     0.0000 </r>
       <r>   -45.4267     0.0000     0.0000 </r>
       <r>   -45.2206     0.0000     0.0000 </r>
       <r>   -45.0145     0.0000     0.0000 </r>
       <r>   -44.8083     0.0000     0.0000 </r>
       <r>   -44.6022     0.0000     0.0000 </r>
       <r>   -44.3961     0.0000     0.0000 </r>
       <r>   -44.1900     0.0000     0.0000 </r>
       <r>   -43.9839     0.0000     0.0000 </r>
       <r>   -43.7778     0.0000     0.0000 </r>
       <r>   -43.5717     0.0000     0.0000 </r>
       <r>   -43.3656     0.0006     0.0001 </r>
       <r>   -43.1595     9.4744     1.9528 </r>
       <r>   -42.9534     0.2288     2.0000 </r>
       <r>   -42.7473     0.0000     2.0000 </r>
       <r>   -42.5412     0.0000     2.0000 </r>
       <r>   -42.3351     0.0000     2.0000 </r>
       <r>   -42.1290     0.0000     2.0000 </r>
       <r>   -41.9229     0.0000     2.0000 </r>
       <r>   -41.7168     0.0000     2.0000 </r>
       <r>   -41.5107     0.0000     2.0000 </r>
       <r>   -41.3046     0.0000     2.0000 </r>
       <r>   -41.0985     0.0000     2.0000 </r>
       <r>   -40.8924     0.0000     2.0000 </r>
       <r>   -40.6863     0.0000     2.0000 </r>
       <r>   -40.4802     0.0000     2.0000 </r>
       <r>   -40.2741     0.0000     2.0000 </r>
       <r>   -40.0679     0.0000     2.0000 </r>
       <r>   -39.8618     0.0000     2.0000 </r>
       <r>   -39.6557     0.0000     2.0000 </r>
       <r>   -39.4496     0.0000     2.0000 </r>
       <r>   -39.2435     0.0000     2.0000 </r>
       <r>   -39.0374     0.0000     2.0000 </r>
       <r>   -38.8313     0.0000     2.0000 </r>
       <r>   -38.6252     0.0000     2.0000 </r>
       <r>   -38.4191     0.0000     2.0000 </r>
       <r>   -38.2130     0.0000     2.0000 </r>
       <r>   -38.0069     0.0000     2.0000 </r>
       <r>   -37.8008     0.0000     2.0000 </r>
       <r>   -37.5947     0.0000     2.0000 </r>
       <r>   -37.3886     0.0000     2.0000 </r>
       <r>   -37.1825     0.0000     2.0000 </r>
       <r>   -36.9764     0.0000     2.0000 </r>
       <r>   -36.7703     0.0000     2.0000 </r>
       <r>   -36.5642     0.0000     2.0000 </r>
       <r>   -36.3581     0.0000     2.0000 </r>
       <r>   -36.1520     0.0000     2.0000 </r>
       <r>   -35.9459     0.0000     2.0000 </r>
       <r>   -35.7398     0.0000     2.0000 </r>
       <r>   -35.5337     0.0000     2.0000 </r>
       <r>   -35.3275     0.0000     2.0000 </r>
       <r>   -35.1214     0.0000     2.0000 </r>
       <r>   -34.9153     0.0000     2.0000 </r>
       <r>   -34.7092     0.0000     2.0000 </r>
       <r>   -34.5031     0.0000     2.0000 </r>
       <r>   -34.2970     0.0000     2.0000 </r>
       <r>   -34.0909     0.0000     2.0000 </r>
       <r>   -33.8848     0.0000     2.0000 </r>
       <r>   -33.6787     0.0000     2.0000 </r>
       <r>   -33.4726     0.0000     2.0000 </r>
       <r>   -33.2665     0.0000     2.0000 </r>
       <r>   -33.0604     0.0000     2.0000 </r>
       <r>   -32.8543     0.0000     2.0000 </r>
       <r>   -32.6482     0.0000     2.0000 </r>
       <r>   -32.4421     0.0000     2.0000 </r>
       <r>   -32.2360     0.0000     2.0000 </r>
       <r>   -32.0299     0.0000     2.0000 </r>
       <r>   -31.8238     0.0000     2.0000 </r>
       <r>   -31.6177     0.0000     2.0000 </r>
       <r>   -31.4116     0.0000     2.0000 </r>
       <r>   -31.2055     0.0000     2.0000 </r>
       <r>   -30.9994     0.0000     2.0000 </r>
       <r>   -30.7933     0.0000     2.0000 </r>
       <r>   -30.5871     0.0000     2.0000 </r>
       <r>   -30.3810     0.0000     2.0000 </r>
       <r>   -30.1749     0.0000     2.0000 </r>
       <r>   -29.9688     0.0000     2.0000 </r>
       <r>   -29.7627     0.0000     2.0000 </r>
       <r>   -29.5566     0.0000     2.0000 </r>
       <r>   -29.3505     0.0000     2.0000 </r>
       <r>   -29.1444     0.0000     2.0000 </r>
       <r>   -28.9383     0.0000     2.0000 </r>
       <r>   -28.7322     0.0000     2.0000 </r>
       <r>   -28.5261     0.0000     2.0000 </r>
       <r>   -28.3200     0.0000     2.0000 </r>
       <r>   -28.1139     0.0000     2.0000 </r>
       <r>   -27.9078     0.0000     2.0000 </r>
       <r>   -27.7017     0.0000     2.0000 </r>
       <r>   -27.4956     0.0000     2.0000 </r>
       <r>   -27.2895     0.0000     2.0000 </r>
       <r>   -27.0834     0.0000     2.0000 </r>
       <r>   -26.8773     0.0000     2.0000 </r>
       <r>   -26.6712     0.0000     2.0000 </r>
       <r>   -26.4651     0.0000     2.0000 </r>
       <r>   -26.2590     0.0000     2.0000 </r>
       <r>   -26.0529     0.0000     2.0000 </r>
       <r>   -25.8467     0.0000     2.0000 </r>
       <r>   -25.6406     0.0000     2.0000 </r>
       <r>   -25.4345     0.0000     2.0000 </r>
       <r>   -25.2284     0.0000     2.0000 </r>
       <r>   -25.0223     0.0000     2.0000 </r>
       <r>   -24.8162     0.0000     2.0000 </r>
       <r>   -24.6101     0.0000     2.0000 </r>
       <r>   -24.4040     0.0000     2.0000 </r>
       <r>   -24.1979     0.0000     2.0000 </r>
       <r>   -23.9918     0.0000     2.0000 </r>
       <r>   -23.7857     0.0000     2.0000 </r>
       <r>   -23.5796     0.0000     2.0000 </r>
       <r>   -23.3735     0.0000     2.0000 </r>
       <r>   -23.1674     0.0000     2.0000 </r>
       <r>   -22.9613     0.0000     2.0000 </r>
       <r>   -22.7552     0.0000     2.0000 </r>
       <r>   -22.5491     0.0000     2.0000 </r>
       <r>   -22.3430     0.0000     2.0000 </r>
       <r>   -22.1369     0.0000     2.0000 </r>
       <r>   -21.9308     0.0000     2.0000 </r>
       <r>   -21.7247     2.0284     2.4181 </r>
       <r>   -21.5186    13.9435     5.2919 </r>
       <r>   -21.3124    21.2736     9.6765 </r>
       <r>   -21.1063     1.5698    10.0000 </r>
       <r>   -20.9002     0.0000    10.0000 </r>
       <r>   -20.6941     0.0000    10.0000 </r>
       <r>   -20.4880     0.0000    10.0000 </r>
       <r>   -20.2819     0.0000    10.0000 </r>
       <r>   -20.0758     0.0000    10.0000 </r>
       <r>   -19.8697     0.0000    10.0000 </r>
       <r>   -19.6636     0.0000    10.0000 </r>
       <r>   -19.4575     0.0000    10.0000 </r>
       <r>   -19.2514     0.0000    10.0000 </r>
       <r>   -19.0453     0.0000    10.0000 </r>
       <r>   -18.8392     0.0000    10.0000 </r>
       <r>   -18.6331     0.0000    10.0000 </r>
       <r>   -18.4270     0.0000    10.0000 </r>
       <r>   -18.2209     0.0000    10.0000 </r>
       <r>   -18.0148     0.0000    10.0000 </r>
       <r>   -17.8087     0.0000    10.0000 </r>
       <r>   -17.6026     0.0000    10.0000 </r>
       <r>   -17.3965     0.0000    10.0000 </r>
       <r>   -17.1904     0.0000    10.0000 </r>
       <r>   -16.9843     0.0000    10.0000 </r>
       <r>   -16.7782     0.0000    10.0000 </r>
       <r>   -16.5720     0.0000    10.0000 </r>
       <r>   -16.3659     0.0000    10.0000 </r>
       <r>   -16.1598     0.0000    10.0000 </r>
       <r>   -15.9537     0.0000    10.0000 </r>
       <r>   -15.7476     0.0000    10.0000 </r>
       <r>   -15.5415     0.0000    10.0000 </r>
       <r>   -15.3354     0.0000    10.0000 </r>
       <r>   -15.1293     0.0000    10.0000 </r>
       <r>   -14.9232     0.0000    10.0000 </r>
       <r>   -14.7171     0.0000    10.0000 </r>
       <r>   -14.5110     0.0000    10.0000 </r>
       <r>   -14.3049     0.0000    10.0000 </r>
       <r>   -14.0988     0.0000    10.0000 </r>
       <r>   -13.8927     0.0000    10.0000 </r>
       <r>   -13.6866     0.0000    10.0000 </r>
       <r>   -13.4805     0.0000    10.0000 </r>
       <r>   -13.2744     0.0000    10.0000 </r>
       <r>   -13.0683     0.0000    10.0000 </r>
       <r>   -12.8622     0.0000    10.0000 </r>
       <r>   -12.6561     0.5525    10.1139 </r>
       <r>   -12.4500     4.0122    10.9408 </r>
       <r>   -12.2439     3.3378    11.6288 </r>
       <r>   -12.0378     5.6091    12.7848 </r>
       <r>   -11.8316     1.5789    13.1102 </r>
       <r>   -11.6255     6.6668    14.4843 </r>
       <r>   -11.4194     6.0176    15.7245 </r>
       <r>   -11.2133     1.3365    16.0000 </r>
       <r>   -11.0072     0.0000    16.0000 </r>
       <r>   -10.8011     0.0000    16.0000 </r>
       <r>   -10.5950     0.0000    16.0000 </r>
       <r>   -10.3889     0.0000    16.0000 </r>
       <r>   -10.1828     0.0000    16.0000 </r>
       <r>    -9.9767     0.0000    16.0000 </r>
       <r>    -9.7706     0.0000    16.0000 </r>
       <r>    -9.5645     0.0000    16.0000 </r>
       <r>    -9.3584     0.0000    16.0000 </r>
       <r>    -9.1523     0.0000    16.0000 </r>
       <r>    -8.9462     0.0000    16.0000 </r>
       <r>    -8.7401     0.0000    16.0000 </r>
       <r>    -8.5340     0.0000    16.0000 </r>
       <r>    -8.3279     0.0000    16.0000 </r>
       <r>    -8.1218     0.0000    16.0000 </r>
       <r>    -7.9157     0.0000    16.0000 </r>
       <r>    -7.7096     0.0000    16.0000 </r>
       <r>    -7.5035     0.0000    16.0000 </r>
       <r>    -7.2974     0.0000    16.0000 </r>
       <r>    -7.0912     0.3075    16.0634 </r>
       <r>    -6.8851     2.8817    16.6573 </r>
       <r>    -6.6790    10.6692    18.8563 </r>
       <r>    -6.4729    14.0324    21.7484 </r>
       <r>    -6.2668     1.2206    22.0000 </r>
       <r>    -6.0607     0.0000    22.0000 </r>
       <r>    -5.8546     0.0000    22.0000 </r>
       <r>    -5.6485     0.0000    22.0000 </r>
       <r>    -5.4424     0.0000    22.0000 </r>
       <r>    -5.2363     0.0000    22.0000 </r>
       <r>    -5.0302     0.0000    22.0000 </r>
       <r>    -4.8241     0.0000    22.0000 </r>
       <r>    -4.6180     0.0000    22.0000 </r>
       <r>    -4.4119     0.0000    22.0000 </r>
       <r>    -4.2058     0.0000    22.0000 </r>
       <r>    -3.9997     0.0000    22.0000 </r>
       <r>    -3.7936     0.0000    22.0000 </r>
       <r>    -3.5875     0.0000    22.0000 </r>
       <r>    -3.3814     0.0000    22.0000 </r>
       <r>    -3.1753     0.0000    22.0000 </r>
       <r>    -2.9692     0.0000    22.0000 </r>
       <r>    -2.7631     0.0000    22.0000 </r>
       <r>    -2.5569     0.0000    22.0000 </r>
       <r>    -2.3508     0.0000    22.0000 </r>
       <r>    -2.1447     0.0000    22.0000 </r>
       <r>    -1.9386     0.0000    22.0000 </r>
       <r>    -1.7325     0.0000    22.0000 </r>
       <r>    -1.5264     0.0000    22.0000 </r>
       <r>    -1.3203     0.0000    22.0000 </r>
       <r>    -1.1142     0.0000    22.0000 </r>
       <r>    -0.9081     0.0000    22.0000 </r>
       <r>    -0.7020     0.0000    22.0000 </r>
       <r>    -0.4959     0.0000    22.0000 </r>
       <r>    -0.2898     0.0000    22.0000 </r>
       <r>    -0.0837     0.0000    22.0000 </r>
       <r>     0.1224     0.7329    22.1510 </r>
       <r>     0.3285     6.8335    23.5595 </r>
       <r>     0.5346     1.5895    23.8871 </r>
       <r>     0.7407     2.1992    24.3403 </r>
       <r>     0.9468     7.3816    25.8617 </r>
       <r>     1.1529     2.3442    26.3448 </r>
       <r>     1.3590     3.6185    27.0906 </r>
       <r>     1.5651     7.4234    28.6206 </r>
       <r>     1.7712     7.1643    30.0972 </r>
       <r>     1.9773     5.9421    31.3219 </r>
       <r>     2.1835     4.3958    32.2279 </r>
       <r>     2.3896     2.6809    32.7804 </r>
       <r>     2.5957     4.4210    33.6916 </r>
       <r>     2.8018     4.0513    34.5266 </r>
       <r>     3.0079     6.9546    35.9600 </r>
       <r>     3.2140     9.6746    37.9540 </r>
       <r>     3.4201     4.5975    38.9015 </r>
       <r>     3.6262     3.5986    39.6432 </r>
       <r>     3.8323     1.7301    39.9998 </r>
       <r>     4.0384     0.0010    40.0000 </r>
       <r>     4.2445     0.0000    40.0000 </r>
       <r>     4.4506     0.0000    40.0000 </r>
       <r>     4.6567     0.0000    40.0000 </r>
       <r>     4.8628     0.0000    40.0000 </r>
       <r>     5.0689     0.0000    40.0000 </r>
       <r>     5.2750     0.0000    40.0000 </r>
       <r>     5.4811     0.0000    40.0000 </r>
       <r>     5.6872     0.0000    40.0000 </r>
       <r>     5.8933     0.0000    40.0000 </r>
       <r>     6.0994     0.0000    40.0000 </r>
       <r>     6.3055     0.0000    40.0000 </r>
       <r>     6.5116     0.0000    40.0000 </r>
       <r>     6.7177     0.0000    40.0000 </r>
       <r>     6.9239     0.0000    40.0000 </r>
       <r>     7.1300     0.0614    40.0126 </r>
       <r>     7.3361     0.8340    40.1845 </r>
       <r>     7.5422     0.6040    40.3090 </r>
       <r>     7.7483     0.5785    40.4282 </r>
       <r>     7.9544     1.6422    40.7667 </r>
       <r>     8.1605     1.9970    41.1783 </r>
       <r>     8.3666     0.6074    41.3035 </r>
       <r>     8.5727     0.7902    41.4664 </r>
       <r>     8.7788     2.3632    41.9534 </r>
       <r>     8.9849     2.9096    42.5531 </r>
       <r>     9.1910     2.8302    43.1364 </r>
       <r>     9.3971     2.5511    43.6622 </r>
       <r>     9.6032     4.6837    44.6276 </r>
       <r>     9.8093     4.2204    45.4974 </r>
       <r>    10.0154     2.0218    45.9141 </r>
       <r>    10.2215     1.1560    46.1524 </r>
       <r>    10.4276     0.9978    46.3580 </r>
       <r>    10.6337     1.5939    46.6865 </r>
       <r>    10.8398     0.4524    46.7798 </r>
       <r>    11.0459     0.6394    46.9115 </r>
       <r>    11.2520     1.1784    47.1544 </r>
       <r>    11.4581     1.3700    47.4368 </r>
       <r>    11.6643     0.0035    47.4375 </r>
       <r>    11.8704     0.0001    47.4375 </r>
       <r>    12.0765     0.9413    47.6315 </r>
       <r>    12.2826     0.8781    47.8125 </r>
       <r>    12.4887     0.0000    47.8125 </r>
       <r>    12.6948     0.0054    47.8136 </r>
       <r>    12.9009     0.4572    47.9078 </r>
       <r>    13.1070     0.4472    48.0000 </r>
       <r>    13.3131     0.0000    48.0000 </r>
       <r>    13.5192     0.0000    48.0000 </r>
       <r>    13.7253     0.0000    48.0000 </r>
       <r>    13.9314     0.0000    48.0000 </r>
       <r>    14.1375     0.0000    48.0000 </r>
       <r>    14.3436     0.0000    48.0000 </r>
       <r>    14.5497     0.0000    48.0000 </r>
       <r>    14.7558     0.0000    48.0000 </r>
       <r>    14.9619     0.0000    48.0000 </r>
       <r>    15.1680     0.0000    48.0000 </r>
       <r>    15.3741     0.0000    48.0000 </r>
       <r>    15.5802     0.0000    48.0000 </r>
       <r>    15.7863     0.0000    48.0000 </r>
      </set>
     </set>
    </array>
   </total>
  </dos>
 </calculation>
 <structure name="finalpos" >
  <crystal>
   <varray name="basis" >
    <v>       4.19200000       0.00000000       0.00000000 </v>
    <v>       0.00000000       4.19200000       0.00000000 </v>
    <v>       0.00000000       0.00000000       4.19200000 </v>
   </varray>
   <i name="volume">     73.66544589 </i>
   <varray name="rec_basis" >
    <v>       0.23854962       0.00000000       0.00000000 </v>
    <v>       0.00000000       0.23854962       0.00000000 </v>
    <v>       0.00000000       0.00000000       0.23854962 </v>
   </varray>
  </crystal>
  <varray name="positions" >
   <v>       0.00000000       0.00000000       0.00000000 </v>
   <v>       0.50000000       0.50000000       0.50000000 </v>
   <v>       0.50000000       0.50000000       0.00000000 </v>
   <v>       0.50000000       0.00000000       0.50000000 </v>
   <v>       0.00000000       0.50000000       0.50000000 </v>
  </varray>
 </structure>
</modeling>
