101
Lattice="13.791603039053763 -1.1704809832993197e-07 6.703336656169091e-07 6.895801418160254 11.94387930607876 1.6811462701697e-06 0.0 0.0 37.15135978955718" Properties=species:S:1:pos:R:3:tags:I:1:initial_magmoms:R:1:forces:R:3 energy=-583.757568359375 free_energy=-583.757568359375 stress="0.009257281048900032 6.248621382151652e-10 7.944888415130204e-10 6.248621382151652e-10 0.009257295185771537 2.640550509357737e-09 7.944888415130204e-10 2.640550509357737e-09 0.0012728325710375733" pbc="T T T"
Pt       0.00000004       0.00000003       0.00000000        0       0.00000000      -0.00000040      -0.00000256       0.15587980
Pt       2.75832052       0.00000002       0.00000029        0       0.00000000       0.00113846      -0.00392020       0.13230425
Pt       5.51664114      -0.00000007       0.00000030        0       0.00000000      -0.00294881       0.00035151       0.13461635
Pt       8.27496177      -0.00000001       0.00000044        0       0.00000000       0.00295183       0.00035208       0.13461530
Pt      11.03328250      -0.00000006       0.00000064        0       0.00000000      -0.00113819      -0.00391865       0.13230506
Pt       1.37916020       2.38877583       0.00000036        0       0.00000000      -0.00282302       0.00294590       0.13230541
Pt       4.13748100       2.38877577       0.00000041        0       0.00000000       0.00001686       0.00001346       0.13079518
Pt       6.89580149       2.38877583       0.00000074        0       0.00000000      -0.00000065      -0.00008551       0.13183981
Pt       9.65412211       2.38877585       0.00000086        0       0.00000000      -0.00001933       0.00001111       0.13079539
Pt      12.41244274       2.38877574       0.00000096        0       0.00000000       0.00282345       0.00294564       0.13230637
Pt       2.75832046       4.77755174       0.00000071        0       0.00000000      -0.00116436      -0.00272971       0.13461915
Pt       5.51664125       4.77755168       0.00000096        0       0.00000000      -0.00007578       0.00004407       0.13184252
Pt       8.27496176       4.77755177       0.00000087        0       0.00000000       0.00007475       0.00004405       0.13184434
Pt      11.03328240       4.77755159       0.00000113        0       0.00000000       0.00117116      -0.00273071       0.13461795
Pt      13.79160305       4.77755159       0.00000129        0       0.00000000      -0.00000104       0.00627674       0.12182346
Pt       4.13748079       7.16632756       0.00000111        0       0.00000000       0.00177506       0.00238009       0.13461992
Pt       6.89580146       7.16632759       0.00000109        0       0.00000000       0.00000042      -0.00002144       0.13079849
Pt       9.65412208       7.16632755       0.00000130        0       0.00000000      -0.00178169       0.00237994       0.13462040
Pt      12.41244264       7.16632749       0.00000147        0       0.00000000       0.00023013       0.00013421       0.13223556
Pt      15.17076330       7.16632753       0.00000168        0       0.00000000      -0.00022572       0.00013201       0.13223442
Pt       5.51664133       9.55510348       0.00000140        0       0.00000000      -0.00396336       0.00097485       0.13230625
Pt       8.27496170       9.55510347       0.00000156        0       0.00000000       0.00396283       0.00097570       0.13230506
Pt      11.03328233       9.55510332       0.00000163        0       0.00000000       0.00543601      -0.00313673       0.12182561
Pt      13.79160294       9.55510332       0.00000180        0       0.00000000      -0.00000164      -0.00026447       0.13223305
Pt      16.54992351       9.55510324       0.00000197        0       0.00000000      -0.00542934      -0.00313834       0.12182710
Pt       1.37916046       0.79625891       2.38854322        1       0.00000000      -0.05905189      -0.03409400      -0.04439028
Pt       4.13748118       0.79625904       2.38854321        1       0.00000000       0.00415837      -0.00402472      -0.16024224
Pt       6.89580177       0.79625874       2.38854312        1       0.00000000       0.00000016       0.00134441      -0.14289935
Pt       9.65412216       0.79625869       2.38854340        1       0.00000000      -0.00415950      -0.00402413      -0.16024011
Pt      12.41244283       0.79625878       2.38854371        1       0.00000000       0.05904917      -0.03409343      -0.04439179
Pt       2.75832072       3.18503486       2.38854320        1       0.00000000      -0.00140388       0.00561576      -0.16024029
Pt       5.51664121       3.18503462       2.38854355        1       0.00000000      -0.00018229      -0.00010128      -0.13423017
Pt       8.27496190       3.18503470       2.38854341        1       0.00000000       0.00018632      -0.00010431      -0.13422798
Pt      11.03328255       3.18503481       2.38854380        1       0.00000000       0.00140458       0.00561250      -0.16024397
Pt      13.79160321       3.18503467       2.38854404        1       0.00000000      -0.00000019      -0.02545251      -0.14433956
Pt       4.13748100       5.57381065       2.38854369        1       0.00000000       0.00115533      -0.00067100      -0.14289473
Pt       6.89580173       5.57381054       2.38854381        1       0.00000000       0.00000095       0.00021128      -0.13423082
Pt       9.65412207       5.57381056       2.38854394        1       0.00000000      -0.00116320      -0.00067062      -0.14289546
Pt      12.41244279       5.57381062       2.38854397        1       0.00000000       0.00342832      -0.00621292      -0.13577905
Pt      15.17076346       5.57381055       2.38854403        1       0.00000000      -0.00342695      -0.00621344      -0.13577649
Pt       5.51664151       7.96258644       2.38854405        1       0.00000000      -0.00557144      -0.00159423      -0.16024464
Pt       8.27496191       7.96258639       2.38854430        1       0.00000000       0.00556692      -0.00159693      -0.16024655
Pt      11.03328242       7.96258650       2.38854453        1       0.00000000      -0.00366231       0.00607684      -0.13577737
Pt      13.79160307       7.96258652       2.38854447        1       0.00000000      -0.00000269      -0.00000005      -0.14053817
Pt      16.54992363       7.96258639       2.38854479        1       0.00000000       0.00367299       0.00607692      -0.13577820
Pt       6.89580146      10.35136231       2.38854445        1       0.00000000       0.00000147       0.06818757      -0.04439542
Pt       9.65412211      10.35136230       2.38854437        1       0.00000000      -0.02204087       0.01272582      -0.14434111
Pt      12.41244281      10.35136234       2.38854469        1       0.00000000      -0.00710228       0.00012918      -0.13577974
Pt      15.17076345      10.35136224       2.38854446        1       0.00000000       0.00710458       0.00013196      -0.13577580
Pt      17.92908397      10.35136222       2.38854460        1       0.00000000       0.02203217       0.01272567      -0.14433900
Pt       0.00000002       1.57195179       4.77057473        2       0.00000000       0.00000208      -0.00724886       0.01522012
Pt       2.76356293       1.59554425       4.72202752        2       0.00000000       0.00156903       0.00090993      -0.00141668
Pt       5.51856750       1.59203747       4.73215915        2       0.00000000      -0.00030221      -0.00083925      -0.00291578
Pt       8.27303727       1.59203628       4.73215785        2       0.00000000       0.00029670      -0.00082902      -0.00290672
Pt      11.02804073       1.59554463       4.72202774        2       0.00000000      -0.00157725       0.00089843      -0.00141530
Pt       1.37621581       3.97907345       4.72828360        2       0.00000000      -0.00226831      -0.00723595      -0.00271608
Pt       4.13802704       3.98320001       4.73215909        2       0.00000000      -0.00086659       0.00017691      -0.00292026
Pt       6.89580155       3.98129397       4.73330364        2       0.00000000      -0.00000107      -0.00000172      -0.00048223
Pt       9.65357565       3.98320045       4.73215956        2       0.00000000       0.00086954       0.00016533      -0.00292081
Pt      12.41538738       3.97907331       4.72828422        2       0.00000000       0.00226679      -0.00723085      -0.00271484
Pt       2.75678521       6.37095553       4.73020801        2       0.00000000       0.00064162      -0.00036012      -0.00184286
Pt       5.51526211       6.36864284       4.73215938        2       0.00000000      -0.00058148       0.00066432      -0.00291951
Pt       8.27634104       6.36864261       4.73215982        2       0.00000000       0.00057687       0.00066892      -0.00292006
Pt      11.03481848       6.37095585       4.73020837        2       0.00000000      -0.00063246      -0.00036275      -0.00183812
Pt      13.79160294       6.37113115       4.73151642        2       0.00000000       0.00000040      -0.00404999      -0.00131232
Pt       4.13793214       8.76250549       4.72828386        2       0.00000000       0.00512464       0.00557599      -0.00270855
Pt       6.89580147       8.75279138       4.72202890        2       0.00000000       0.00000458      -0.00181252      -0.00141451
Pt       9.65367198       8.76250506       4.72828431        2       0.00000000      -0.00513546       0.00557873      -0.00270863
Pt      12.41336213       8.75831466       4.73151844        2       0.00000000      -0.00351211       0.00202339      -0.00132293
Pt      15.16984445       8.75831500       4.73151875        2       0.00000000       0.00350356       0.00201900      -0.00132875
Pt       5.53445271      11.15790404       4.77057596        2       0.00000000       0.00626677       0.00362879       0.01522233
Pt       8.25715087      11.15790392       4.77057622        2       0.00000000      -0.00626920       0.00362748       0.01522189
Pt      11.02988710      11.14618162       4.72828554        2       0.00000000      -0.00739181       0.00165103      -0.00271495
Pt      13.79160270      11.14584788       4.73020707        2       0.00000000      -0.00000101       0.00073037      -0.00182424
Pt      16.55331868      11.14618148       4.72828589        2       0.00000000       0.00740986       0.00165656      -0.00272258
Pt       0.00000034       0.00000065       7.28922583        3       0.00000000      -0.00000121      -0.00000159       0.02693533
Pt       2.78500180       0.00362612       7.07034030        3       0.00000000       0.00617853      -0.00268404      -0.00232548
Pt       5.52700127      -0.00005292       7.08985984        3       0.00000000       0.00376039       0.00117975      -0.00213918
Pt       8.26460250      -0.00005291       7.08986021        3       0.00000000      -0.00376623       0.00118437      -0.00214118
Pt      11.00660143       0.00362600       7.07034095        3       0.00000000      -0.00617510      -0.00268161      -0.00232923
Pt       1.39564085       2.41007034       7.07034122        3       0.00000000       0.00076442       0.00669015      -0.00232431
Pt       4.14402126       2.39255268       7.08789961        3       0.00000000      -0.00337053      -0.00195011      -0.00047153
Pt       6.89580167       2.39036064       7.09339655        3       0.00000000       0.00000362      -0.00037462      -0.00432962
Pt       9.64758185       2.39255236       7.08789994        3       0.00000000       0.00337138      -0.00194732      -0.00047198
Pt      12.39596244       2.41007030       7.07034151        3       0.00000000      -0.00076714       0.00669036      -0.00232512
Pt       2.76345475       4.78655058       7.08985943        3       0.00000000       0.00290364       0.00266650      -0.00213492
Pt       5.51801323       4.77675965       7.09339673        3       0.00000000      -0.00032167       0.00018858      -0.00432968
Pt       8.27359013       4.77675962       7.09339611        3       0.00000000       0.00032336       0.00018802      -0.00432453
Pt      11.02814875       4.78655037       7.08985989        3       0.00000000      -0.00290330       0.00266443      -0.00213516
Pt      13.79160340       4.78431182       7.08655105        3       0.00000000      -0.00000065       0.00031118       0.00133988
Pt       4.13225587       7.15738275       7.08985977        3       0.00000000      -0.00085971      -0.00384377      -0.00213751
Pt       6.89580172       7.15877557       7.08790020        3       0.00000000       0.00000112       0.00389639      -0.00046811
Pt       9.65934819       7.15738265       7.08986030        3       0.00000000       0.00085532      -0.00384197      -0.00213787
Pt      12.41362950       7.16701297       7.09267245        3       0.00000000      -0.00038765      -0.00022162      -0.00455135
Pt      15.16957680       7.16701320       7.09267236        3       0.00000000       0.00038897      -0.00022263      -0.00455138
Pt       5.50644097       9.53018435       7.07034237        3       0.00000000      -0.00542028      -0.00401473      -0.00233066
Pt       8.28516245       9.53018447       7.07034267        3       0.00000000       0.00542112      -0.00401659      -0.00233182
Pt      11.03913613       9.55172433       7.08655066        3       0.00000000       0.00026936      -0.00015780       0.00134709
Pt      13.79160352       9.55373345       7.09267290        3       0.00000000      -0.00000135       0.00045001      -0.00455281
Pt      16.54406995       9.55172457       7.08655070        3       0.00000000      -0.00026138      -0.00015826       0.00134835
O        0.00000018       0.00000006       9.10102562        0       0.00000000      -0.00000006       0.00000553       0.03291772
