101
Lattice="13.791603039053763 -1.1704809832993197e-07 6.703336656169091e-07 6.895801418160254 11.94387930607876 1.6811462701697e-06 0.0 0.0 37.15135978955718" Properties=species:S:1:pos:R:3:tags:I:1:initial_magmoms:R:1:forces:R:3 energy=-584.8253784179688 free_energy=-584.8253784179688 stress="0.008350946871598578 -1.099196799923246e-06 1.331588882190246e-06 -1.099196799923246e-06 0.008352231094767817 7.792540791610178e-07 1.331588882190246e-06 7.792540791610178e-07 0.0012613596627606342" pbc="T T T"
Pt       0.00000004       0.00000003       0.00000000        0       0.00000000      -0.00462390      -0.00267063       0.14917278
Pt       2.75832052       0.00000002       0.00000029        0       0.00000000       0.00454776      -0.00267120       0.14921620
Pt       5.51664114      -0.00000007       0.00000030        0       0.00000000       0.00341905      -0.00544880       0.12644687
Pt       8.27496177      -0.00000001       0.00000044        0       0.00000000      -0.00008692      -0.00133465       0.12780890
Pt      11.03328250      -0.00000006       0.00000064        0       0.00000000      -0.00357642      -0.00545388       0.12621218
Pt       1.37916020       2.38877583       0.00000036        0       0.00000000      -0.00003767       0.00527512       0.14921737
Pt       4.13748100       2.38877577       0.00000041        0       0.00000000      -0.00056016      -0.00031867       0.13193709
Pt       6.89580149       2.38877583       0.00000074        0       0.00000000      -0.00204339      -0.00157168       0.13346970
Pt       9.65412211       2.38877585       0.00000086        0       0.00000000       0.00197479      -0.00162678       0.13356081
Pt      12.41244274       2.38877574       0.00000096        0       0.00000000       0.00054088      -0.00045263       0.13207567
Pt       2.75832046       4.77755174       0.00000071        0       0.00000000      -0.00300252       0.00568351       0.12644917
Pt       5.51664125       4.77755168       0.00000096        0       0.00000000      -0.00238488      -0.00098282       0.13347286
Pt       8.27496176       4.77755177       0.00000087        0       0.00000000      -0.00004069      -0.00002331       0.13304767
Pt      11.03328240       4.77755159       0.00000113        0       0.00000000       0.00229889      -0.00100737       0.13349366
Pt      13.79160305       4.77755159       0.00000129        0       0.00000000       0.00291224       0.00572195       0.12632906
Pt       4.13748079       7.16632756       0.00000111        0       0.00000000      -0.00120508       0.00059281       0.12781125
Pt       6.89580146       7.16632759       0.00000109        0       0.00000000      -0.00041926       0.00252466       0.13356385
Pt       9.65412208       7.16632755       0.00000130        0       0.00000000       0.00027512       0.00249607       0.13349897
Pt      12.41244264       7.16632749       0.00000147        0       0.00000000       0.00101982       0.00058956       0.12790576
Pt      15.17076330       7.16632753       0.00000168        0       0.00000000      -0.00006732       0.00569070       0.12260714
Pt       5.51664133       9.55510348       0.00000140        0       0.00000000      -0.00651209      -0.00037016       0.12621284
Pt       8.27496170       9.55510347       0.00000156        0       0.00000000      -0.00012172       0.00069760       0.13207662
Pt      11.03328233       9.55510332       0.00000163        0       0.00000000       0.00641286      -0.00033664       0.12632903
Pt      13.79160294       9.55510332       0.00000180        0       0.00000000       0.00489152      -0.00290502       0.12260434
Pt      16.54992351       9.55510324       0.00000197        0       0.00000000      -0.00491415      -0.00284027       0.12276074
Pt       1.37916046       0.79625891       2.38854322        1       0.00000000       0.00016715       0.00009467       0.10758646
Pt       4.13748118       0.79625904       2.38854321        1       0.00000000      -0.06089725      -0.01554658      -0.07204563
Pt       6.89580177       0.79625874       2.38854312        1       0.00000000      -0.01506998       0.01178027      -0.17245251
Pt       9.65412216       0.79625869       2.38854340        1       0.00000000       0.01547170       0.01242281      -0.17265868
Pt      12.41244283       0.79625878       2.38854371        1       0.00000000       0.06166931      -0.01410439      -0.07331309
Pt       2.75832072       3.18503486       2.38854320        1       0.00000000      -0.04390623      -0.04496223      -0.07204869
Pt       5.51664121       3.18503462       2.38854355        1       0.00000000      -0.01662408      -0.00959373      -0.16630198
Pt       8.27496190       3.18503470       2.38854341        1       0.00000000       0.00012281       0.00394134      -0.16719520
Pt      11.03328255       3.18503481       2.38854380        1       0.00000000       0.01670443      -0.00918466      -0.16651918
Pt      13.79160321       3.18503467       2.38854404        1       0.00000000       0.04431624      -0.04512024      -0.07172750
Pt       4.13748100       5.57381065       2.38854369        1       0.00000000       0.00265994      -0.01894039      -0.17245159
Pt       6.89580173       5.57381054       2.38854381        1       0.00000000       0.00347679      -0.00186502      -0.16718967
Pt       9.65412207       5.57381056       2.38854394        1       0.00000000      -0.00321218      -0.00184939      -0.16675855
Pt      12.41244279       5.57381062       2.38854397        1       0.00000000      -0.00239242      -0.01879196      -0.17240676
Pt      15.17076346       5.57381055       2.38854403        1       0.00000000       0.00023541      -0.05334228      -0.14933607
Pt       5.51664151       7.96258644       2.38854405        1       0.00000000       0.01848648       0.00718752      -0.17265950
Pt       8.27496191       7.96258639       2.38854430        1       0.00000000       0.00040223       0.01905288      -0.16651979
Pt      11.03328242       7.96258650       2.38854453        1       0.00000000      -0.01747468       0.00731974      -0.17240472
Pt      13.79160307       7.96258652       2.38854447        1       0.00000000      -0.00146197      -0.00084708      -0.17967753
Pt      16.54992363       7.96258639       2.38854479        1       0.00000000       0.00205566      -0.00094361      -0.17995511
Pt       6.89580146      10.35136231       2.38854445        1       0.00000000       0.01862179       0.06046471      -0.07331876
Pt       9.65412211      10.35136230       2.38854437        1       0.00000000      -0.01691654       0.06093708      -0.07172793
Pt      12.41244281      10.35136234       2.38854469        1       0.00000000      -0.04608348       0.02687330      -0.14934441
Pt      15.17076345      10.35136224       2.38854446        1       0.00000000       0.00021181       0.00224282      -0.17995092
Pt      17.92908397      10.35136222       2.38854460        1       0.00000000       0.04600200       0.02656150      -0.15121451
Pt       0.01152425       1.58631763       4.78506965        2       0.00000000      -0.00338513       0.00217181      -0.00106566
Pt       2.74781281       1.58645209       4.78482897        2       0.00000000       0.00169595       0.00095965      -0.00098816
Pt       5.51113009       1.59305639       4.72694147        2       0.00000000       0.00773099       0.00333962      -0.00647897
Pt       8.27526206       1.59348630       4.72402136        2       0.00000000       0.00068236      -0.00835877       0.00952826
Pt      11.03972649       1.59329828       4.72689492        2       0.00000000      -0.00919687       0.00260401      -0.00526318
Pt       1.37946902       3.96999255       4.75880682        2       0.00000000      -0.00021480      -0.00003665      -0.01889152
Pt       4.13519239       3.97625110       4.72694269        2       0.00000000       0.00676452       0.00502911      -0.00648180
Pt       6.89511039       3.98089408       4.72656290        2       0.00000000       0.00192309       0.00111821       0.00654675
Pt       9.65500810       3.98092790       4.72661951        2       0.00000000      -0.00005520       0.00114556       0.00620537
Pt      12.41522047       3.97636260       4.72685066        2       0.00000000      -0.00577232       0.00427024      -0.00557742
Pt       2.75840808       6.37060970       4.71880563        2       0.00000000      -0.00138635      -0.00434233       0.01326934
Pt       5.51763078       6.36984524       4.72402229        2       0.00000000      -0.00691166       0.00476892       0.00952454
Pt       8.27508863       6.37102213       4.72662275        2       0.00000000       0.00097378      -0.00063660       0.00618832
Pt      11.03276132       6.36976447       4.72407229        2       0.00000000       0.00786182       0.00458993       0.00927971
Pt      13.79218582       6.37049495       4.71879677        2       0.00000000       0.00171367      -0.00348495       0.01386970
Pt       4.13787728       8.75927268       4.71864807        2       0.00000000       0.00068055       0.00247663       0.01446101
Pt       6.89969939       8.76403605       4.72689565        2       0.00000000      -0.00235217      -0.00927210      -0.00526221
Pt       9.65124040       8.76371577       4.72685111        2       0.00000000       0.00082830      -0.00715419      -0.00557362
Pt      12.41310123       8.75913767       4.71879353        2       0.00000000      -0.00215707       0.00320991       0.01389837
Pt      15.17137174       8.75919593       4.72266937        2       0.00000000      -0.00081967      -0.00046872       0.01006171
Pt       5.52697638      11.15358704       4.75798146        2       0.00000000      -0.00072392      -0.00041185      -0.01088720
Pt       8.27535442      11.16070102       4.78507029        2       0.00000000       0.00019360      -0.00400683      -0.00106430
Pt      11.02364918      11.15353817       4.75880819        2       0.00000000      -0.00014065      -0.00014787      -0.01889309
Pt      13.79211514      11.14742667       4.71880755        2       0.00000000      -0.00446621       0.00096538       0.01327078
Pt      16.55049201      11.14775174       4.71864866        2       0.00000000       0.00248990      -0.00066421       0.01446353
Pt      -0.12948062      -0.07475539       7.19469759        3       0.00000000       0.03977382       0.02296676      -0.01783649
Pt       2.88708194      -0.07376033       7.19482204        3       0.00000000      -0.03853425       0.02301756      -0.01593464
Pt       5.56914987      -0.00801037       7.07764993        3       0.00000000      -0.01633612       0.00764984       0.00999147
Pt       8.27556291       0.00040232       7.08138195        3       0.00000000      -0.00265436      -0.00176964       0.00846311
Pt      10.98072291      -0.00765058       7.07814871        3       0.00000000       0.02279934       0.00590239       0.00675318
Pt       1.37966333       2.53716669       7.19482183        3       0.00000000       0.00066064      -0.04487044      -0.01593354
Pt       4.14737537       2.39448840       7.08701495        3       0.00000000      -0.00689085      -0.00397791      -0.03294250
Pt       6.90377120       2.39499256       7.08145118        3       0.00000000       0.00378458      -0.00151809       0.01519853
Pt       9.64746521       2.39530944       7.08152487        3       0.00000000      -0.00574692      -0.00247128       0.01493156
Pt      12.40381441       2.39490388       7.08701351        3       0.00000000       0.00582758      -0.00632700      -0.03365791
Pt       2.77763703       4.82703150       7.07764977        3       0.00000000      -0.00153950      -0.01797703       0.00999358
Pt       5.52600986       4.78134523       7.08145202        3       0.00000000       0.00057659       0.00403775       0.01519731
Pt       8.27534651       4.77777419       7.08585597        3       0.00000000       0.00071767       0.00041004       0.00338528
Pt      11.02491522       4.78131725       7.08153016        3       0.00000000       0.00024852       0.00509145       0.01490197
Pt      13.77362664       4.82709548       7.07785924        3       0.00000000      -0.00001621      -0.01719192       0.00911126
Pt       4.13812963       7.16664666       7.08138259        3       0.00000000      -0.00285951      -0.00140476       0.00846040
Pt       6.89813056       7.15729531       7.08152544        3       0.00000000      -0.00501525      -0.00373646       0.01493716
Pt       9.65319717       7.15719728       7.08153392        3       0.00000000       0.00455274      -0.00232296       0.01488125
Pt      12.41297037       7.16663287       7.08133528        3       0.00000000       0.00203377       0.00118223       0.00820661
Pt      15.17154947       7.18061833       7.08331013        3       0.00000000      -0.00104479      -0.00891816       0.00653532
Pt       5.48373638       9.51341030       7.07814911        3       0.00000000       0.01650546       0.01678794       0.00675255
Pt       8.27595546       9.54456827       7.08701303        3       0.00000000      -0.00256881       0.00820012      -0.03365010
Pt      11.06720066       9.51476427       7.07785972        3       0.00000000      -0.01489809       0.00857272       0.00910828
Pt      13.80437111       9.54863891       7.08331072        3       0.00000000      -0.00824089       0.00355479       0.00652823
Pt      16.53905381       9.54882838       7.08351627        3       0.00000000       0.00427688       0.00246569       0.00570506
O        1.37818192       0.79569466       8.21886797        0       0.00000000       0.00336963       0.00193758      -0.02891592
