65
Lattice="11.033086113260774 5.600493888326504e-08 2.5686178914223706e-08 5.516543105132088 9.554933067924482 1.9872236184885125e-07 0.0 0.0 37.15231387033118" Properties=species:S:1:pos:R:3:tags:I:1:initial_magmoms:R:1:forces:R:3 energy=-375.33502197265625 free_energy=-375.33502197265625 stress="0.008986580048840639 -2.679274456119569e-09 6.396115389578758e-09 -2.679274456119569e-09 0.00898657930479477 4.570565099688398e-11 6.396115389578758e-09 4.570565099688398e-11 0.0012271623845814654" pbc="T T T"
Pt      -0.00000001       0.00000000       0.00000000        0       0.00000000      -0.00000090      -0.00000084       0.15511566
Pt       2.75827155       0.00000002       0.00000007        0       0.00000000       0.00097416      -0.00390531       0.13238215
Pt       5.51654309       0.00000006       0.00000007        0       0.00000000       0.00000264      -0.00045901       0.13684988
Pt       8.27481455       0.00000002       0.00000007        0       0.00000000      -0.00097360      -0.00390834       0.13238376
Pt       1.37913578       2.38873328       0.00000009        0       0.00000000      -0.00289675       0.00279412       0.13238257
Pt       4.13740732       2.38873326       0.00000010        0       0.00000000      -0.00039606      -0.00022823       0.13017565
Pt       6.89567885       2.38873330       0.00000010        0       0.00000000       0.00039806      -0.00022788       0.13017568
Pt       9.65395039       2.38873333       0.00000011        0       0.00000000       0.00289216       0.00279395       0.13238129
Pt       2.75827157       4.77746655       0.00000018        0       0.00000000      -0.00039554       0.00022894       0.13684803
Pt       5.51654311       4.77746655       0.00000018        0       0.00000000       0.00000052       0.00045761       0.13017446
Pt       8.27481459       4.77746656       0.00000016        0       0.00000000       0.00039645       0.00022586       0.13684893
Pt      11.03308612       4.77746666       0.00000025        0       0.00000000       0.00000166       0.00706824       0.11997262
Pt       4.13740734       7.16619989       0.00000032        0       0.00000000      -0.00386717       0.00110972       0.13238314
Pt       6.89567883       7.16619981       0.00000025        0       0.00000000       0.00386650       0.00111131       0.13238317
Pt       9.65395036       7.16619988       0.00000022        0       0.00000000       0.00611916      -0.00353249       0.11997169
Pt      12.41222192       7.16619985       0.00000023        0       0.00000000      -0.00612012      -0.00353099       0.11997148
Pt       1.37913581       0.79624445       2.38855938        1       0.00000000      -0.05906189      -0.03409844      -0.04965306
Pt       4.13740731       0.79624445       2.38855951        1       0.00000000       0.00089120      -0.00331049      -0.16757369
Pt       6.89567888       0.79624443       2.38855941        1       0.00000000      -0.00089078      -0.00331078      -0.16757286
Pt       9.65395033       0.79624446       2.38855954        1       0.00000000       0.05906111      -0.03409765      -0.04965717
Pt       2.75827161       3.18497767       2.38855947        1       0.00000000      -0.00242402       0.00242537      -0.16757353
Pt       5.51654314       3.18497767       2.38855952        1       0.00000000       0.00000270      -0.00000069      -0.13825038
Pt       8.27481457       3.18497770       2.38855940        1       0.00000000       0.00242200       0.00242710      -0.16757794
Pt      11.03308614       3.18497759       2.38855939        1       0.00000000       0.00000302      -0.02527205      -0.15128063
Pt       4.13740736       5.57371086       2.38855937        1       0.00000000      -0.00331285       0.00088976      -0.16757005
Pt       6.89567888       5.57371105       2.38855956        1       0.00000000       0.00331379       0.00088402      -0.16757129
Pt       9.65395045       5.57371094       2.38855956        1       0.00000000      -0.00363325      -0.00209541      -0.13504522
Pt      12.41222194       5.57371108       2.38855958        1       0.00000000       0.00363049      -0.00209526      -0.13504440
Pt       5.51654310       7.96244423       2.38855960        1       0.00000000       0.00000127       0.06819610      -0.04965738
Pt       8.27481475       7.96244428       2.38855962        1       0.00000000      -0.02188619       0.01263405      -0.15128715
Pt      11.03308616       7.96244430       2.38855961        1       0.00000000       0.00000277       0.00419232      -0.13505113
Pt      13.79135772       7.96244428       2.38855965        1       0.00000000       0.02188450       0.01263713      -0.15128654
Pt      -0.00000016       1.57090348       4.76994346        2       0.00000000       0.00000696      -0.00644927       0.01827572
Pt       2.76255668       1.59496333       4.72231037        2       0.00000000       0.00210368       0.00120680      -0.00135405
Pt       5.51654340       1.59122551       4.73071590        2       0.00000000      -0.00000227      -0.00253851      -0.00430658
Pt       8.27052942       1.59496344       4.72231030        2       0.00000000      -0.00211079       0.00120871      -0.00134775
Pt       1.37532828       3.97769994       4.72681615        2       0.00000000      -0.00234319      -0.00371517      -0.00348020
Pt       4.13631318       3.98185384       4.73071593        2       0.00000000      -0.00219518       0.00127413      -0.00430827
Pt       6.89677323       3.98185399       4.73071596        2       0.00000000       0.00219334       0.00127344      -0.00430591
Pt       9.65775675       3.97769986       4.72681630        2       0.00000000       0.00234296      -0.00370835      -0.00347836
Pt       2.75941801       6.37501354       4.72681670        2       0.00000000       0.00205288       0.00388000      -0.00348161
Pt       5.51654306       6.36500776       4.72231034        2       0.00000000      -0.00000234      -0.00243614      -0.00135463
Pt       8.27366773       6.37501361       4.72681632        2       0.00000000      -0.00204760       0.00387738      -0.00348070
Pt      11.03308609       6.36995582       4.72774253        2       0.00000000       0.00000139      -0.00001174      -0.00381903
Pt       4.15610049       8.76948130       4.76994290        2       0.00000000       0.00558486       0.00322044       0.01828358
Pt       6.87698548       8.76948090       4.76994304        2       0.00000000      -0.00558840       0.00323285       0.01827981
Pt       9.64899637       8.75715267       4.72681688        2       0.00000000      -0.00438837      -0.00015720      -0.00348070
Pt      12.41717563       8.75715252       4.72681637        2       0.00000000       0.00439398      -0.00015853      -0.00347598
Pt       0.00000022      -0.00000002       7.29241706        3       0.00000000      -0.00000224       0.00000711       0.03423193
Pt       2.78188893       0.00300394       7.07111684        3       0.00000000       0.00973898      -0.00212718      -0.00247616
Pt       5.51654262       0.00024073       7.08775369        3       0.00000000       0.00000779       0.00176470      -0.00216213
Pt       8.25119769       0.00300374       7.07111704        3       0.00000000      -0.00974992      -0.00212678      -0.00248298
Pt       1.39354540       2.40768471       7.07111645        3       0.00000000       0.00303005       0.00950016      -0.00247237
Pt       4.14198702       2.39137770       7.08928538        3       0.00000000       0.00146983       0.00084953      -0.00315416
Pt       6.89109857       2.39137814       7.08928476        3       0.00000000      -0.00146526       0.00084512      -0.00315458
Pt       9.63954099       2.40768489       7.07111648        3       0.00000000      -0.00303096       0.00950177      -0.00247291
Pt       2.75848013       4.77734683       7.08775227        3       0.00000000       0.00152141      -0.00086687      -0.00211340
Pt       5.51654305       4.77217704       7.08928502        3       0.00000000       0.00000045      -0.00170464      -0.00319397
Pt       8.27460683       4.77734784       7.08775347        3       0.00000000      -0.00152654      -0.00087707      -0.00211832
Pt      11.03308622       4.78287311       7.08725095        3       0.00000000       0.00000069       0.00492132      -0.00210279
Pt       4.12819998       7.14424501       7.07111670        3       0.00000000      -0.00671712      -0.00737696      -0.00247684
Pt       6.90488627       7.14424519       7.07111677        3       0.00000000       0.00671379      -0.00737352      -0.00247532
Pt       9.65863316       7.16349629       7.08725071        3       0.00000000       0.00426714      -0.00246881      -0.00205433
Pt      12.40753831       7.16349614       7.08725068        3       0.00000000      -0.00426917      -0.00246665      -0.00205654
O        0.00000008       0.00000038       9.10437537        0       0.00000000       0.00000395      -0.00000191       0.03082186
