unknown system                          
   1.00000000000000     
     4.192000    0.000000    0.000000
     0.000000    4.192000    0.000000
     0.000000    0.000000    4.192000
   Ba   Zr   O 
     1     1     3
Direct
  0.000000  0.000000  0.000000
  0.500000  0.500000  0.500000
  0.500000  0.500000  0.000000
  0.500000  0.000000  0.500000
  0.000000  0.500000  0.500000
 
   48   48   48
 -.27495      5.2595      20.609      42.361      65.878      86.491      100.59      106.30      103.60      94.013    
  79.911      63.874      48.141      34.315      23.324      15.388      9.9496      6.3319      3.9687      2.4417    
  1.4653     0.85401     0.48938     0.29786     0.23844     0.29786     0.48938     0.85401      1.4653      2.4417    
  3.9687      6.3319      9.9496      15.388      23.324      34.315      48.141      63.874      79.911      94.013    
  103.60      106.30      100.59      86.491      65.878      42.361      20.609      5.2595      5.2595      10.579    
  25.319      46.169      68.631      88.185      101.35      106.33      103.14      93.289      79.109      63.123    
  47.513      33.841      23.003      15.190      9.8389      6.2789      3.9529      2.4490      1.4868     0.88375    
 0.52372     0.33445     0.27570     0.33445     0.52372     0.88375      1.4868      2.4490      3.9529      6.2789    
  9.8389      15.190      23.003      33.841      47.513      63.123      79.109      93.289      103.14      106.33    
  101.35      88.185      68.631      46.169      25.319      10.579      20.609      25.319      38.337      56.638    
  76.124      92.698      103.23      106.18      101.64      91.076      76.710      60.900      45.669      32.455    
  22.071      14.622      9.5259      6.1367      3.9216      2.4885      1.5709     0.99556     0.65193     0.47124    
 0.41515     0.47124     0.65193     0.99556      1.5709      2.4885      3.9216      6.1367      9.5259      14.622    
  22.071      32.455      45.669      60.900      76.710      91.076      101.64      106.18      103.23      92.698    
  76.124      56.638      38.337      25.319      42.361      46.169      56.638      71.175      86.280      98.489    
  105.21      105.23      98.784      87.282      72.748      57.299      42.722      30.270      20.624      13.753    
  9.0621      5.9459      3.9105      2.5946      1.7534      1.2273     0.91436     0.75043     0.69966     0.75043    
 0.91436      1.2273      1.7534      2.5946      3.9105      5.9459      9.0621      13.753      20.624      30.270    
  42.722      57.299      72.748      87.282      98.784      105.23      105.21      98.489      86.280      71.175    
  56.638      46.169      65.878      68.631      76.124      86.280      96.318      103.52      105.91      102.69    
  94.223      81.836      67.319      52.494      38.867      27.466      18.806      12.683      8.5164      5.7544    
  3.9536      2.7923      2.0530      1.5939      1.3230      1.1823      1.1390      1.1823      1.3230      1.5939    
  2.0530      2.7923      3.9536      5.7544      8.5164      12.683      18.806      27.466      38.867      52.494    
  67.319      81.836      94.223      102.69      105.91      103.52      96.318      86.280      76.124      68.631    
  86.491      88.185      92.698      98.489      103.52      105.83      104.10      97.889      87.714      74.779    
  60.623      46.750      34.370      24.282      16.787      11.526      7.9617      5.6076      4.0787      3.0987    
  2.4807      2.1021      1.8825      1.7702      1.7361      1.7702      1.8825      2.1021      2.4807      3.0987    
  4.0787      5.6076      7.9617      11.526      16.787      24.282      34.370      46.750      60.623      74.779    
  87.714      97.889      104.10      105.83      103.52      98.489      92.698      88.185      100.59      101.35    
  103.23      105.21      105.91      104.10      98.996      90.524      79.278      66.340      52.988      40.419    
  29.562      20.993      14.746      10.396      7.4696      5.5512      4.3191      3.5436      3.0683      2.7885    
  2.6343      2.5596      2.5376      2.5596      2.6343      2.7885      3.0683      3.5436      4.3191      5.5512    
  7.4696      10.396      14.746      20.993      29.562      40.419      52.988      66.340      79.278      90.524    
  98.996      104.10      105.91      105.21      103.23      101.35      106.30      106.33      106.18      105.23    
  102.69      97.889      90.524      80.769      69.263      56.951      44.864      33.922      24.805      17.847    
  12.847      9.4014      7.1126      5.6412      4.7272      4.1838      3.8811      3.7285      3.6626      3.6402    
  3.6356      3.6402      3.6626      3.7285      3.8811      4.1838      4.7272      5.6412      7.1126      9.4014    
  12.847      17.847      24.805      33.922      44.864      56.951      69.263      80.769      90.524      97.889    
  102.69      105.23      106.18      106.33      103.60      103.14      101.64      98.784      94.223      87.714    
  79.278      69.263      58.306      47.207      36.779      27.704      20.447      15.049      11.226      8.6408    
  6.9735      5.9577      5.3887      5.1153      5.0262      5.0386      5.0913      5.1405      5.1599      5.1405    
  5.0913      5.0386      5.0262      5.1153      5.3887      5.9577      6.9735      8.6408      11.226      15.049    
  20.447      27.704      36.779      47.207      58.306      69.263      79.278      87.714      94.223      98.784    
  101.64      103.14      94.013      93.289      91.076      87.282      81.836      74.779      66.340      56.951    
  47.207      37.772      29.267      22.184      16.723      12.742      9.9934      8.2115      7.1526      6.6142    
  6.4351      6.4876      6.6694      6.8982      7.1091      7.2551      7.3070      7.2551      7.1091      6.8982    
  6.6694      6.4876      6.4351      6.6142      7.1526      8.2115      9.9934      12.742      16.723      22.184    
  29.267      37.772      47.207      56.951      66.340      74.779      81.836      87.282      91.076      93.289    
  79.911      79.109      76.710      72.748      67.319      60.623      52.988      44.864      36.779      29.267    
  22.795      17.630      13.751      11.015      9.2321      8.2078      7.7654      7.7517      8.0336      8.4940    
  9.0283      9.5460      9.9724      10.252      10.348      10.252      9.9724      9.5460      9.0283      8.4940    
  8.0336      7.7517      7.7654      8.2078      9.2321      11.015      13.751      17.630      22.795      29.267    
  36.779      44.864      52.988      60.623      67.319      72.748      76.710      79.109      63.874      63.123    
  60.900      57.299      52.494      46.750      40.419      33.922      27.704      22.184      17.630      14.106    
  11.567      9.9092      9.0029      8.7174      8.9277      9.5134      10.355      11.334      12.333      13.244    
  13.972      14.441      14.603      14.441      13.972      13.244      12.333      11.334      10.355      9.5134    
  8.9277      8.7174      9.0029      9.9092      11.567      14.106      17.630      22.184      27.704      33.922    
  40.419      46.750      52.494      57.299      60.900      63.123      48.141      47.513      45.669      42.722    
  38.867      34.370      29.562      24.805      20.447      16.723      13.751      11.567      10.147      9.4315    
  9.3472      9.8128      10.739      12.026      13.560      15.211      16.844      18.317      19.493      20.253    
  20.516      20.253      19.493      18.317      16.844      15.211      13.560      12.026      10.739      9.8128    
  9.3472      9.4315      10.147      11.567      13.751      16.723      20.447      24.805      29.562      34.370    
  38.867      42.722      45.669      47.513      34.315      33.841      32.455      30.270      27.466      24.282    
  20.993      17.847      15.049      12.742      11.015      9.9092      9.4315      9.5676      10.288      11.547    
  13.285      15.421      17.848      20.431      23.001      25.352      27.258      28.507      28.942      28.507    
  27.258      25.352      23.001      20.431      17.848      15.421      13.285      11.547      10.288      9.5676    
  9.4315      9.9092      11.015      12.742      15.049      17.847      20.993      24.282      27.466      30.270    
  32.455      33.841      23.324      23.003      22.071      20.624      18.806      16.787      14.746      12.847    
  11.226      9.9934      9.2321      9.0029      9.3472      10.288      11.829      13.961      16.661      19.888    
  23.566      27.560      31.639      35.473      38.652      40.767      41.511      40.767      38.652      35.473    
  31.639      27.560      23.566      19.888      16.661      13.961      11.829      10.288      9.3472      9.0029    
  9.2321      9.9934      11.226      12.847      14.746      16.787      18.806      20.624      22.071      23.003    
  15.388      15.190      14.622      13.753      12.683      11.526      10.396      9.4014      8.6408      8.2115    
  8.2078      8.7174      9.8128      11.547      13.961      17.097      21.007      25.741      31.297      37.542    
  44.134      50.496      55.877      59.501      60.782      59.501      55.877      50.496      44.134      37.542    
  31.297      25.741      21.007      17.097      13.961      11.547      9.8128      8.7174      8.2078      8.2115    
  8.6408      9.4014      10.396      11.526      12.683      13.753      14.622      15.190      9.9496      9.8389    
  9.5259      9.0621      8.5164      7.9617      7.4696      7.1126      6.9735      7.1526      7.7654      8.9277    
  10.739      13.285      16.661      21.007      26.523      33.431      41.857      51.665      62.303      72.752    
  81.673      87.718      89.867      87.718      81.673      72.752      62.303      51.665      41.857      33.431    
  26.523      21.007      16.661      13.285      10.739      8.9277      7.7654      7.1526      6.9735      7.1126    
  7.4696      7.9617      8.5164      9.0621      9.5259      9.8389      6.3319      6.2789      6.1367      5.9459    
  5.7544      5.6076      5.5512      5.6412      5.9577      6.6142      7.7517      9.5134      12.026      15.421    
  19.888      25.741      33.431      43.451      56.119      71.247      87.885      104.60      119.44      129.82    
  133.56      129.82      119.44      104.60      87.885      71.247      56.119      43.451      33.431      25.741    
  19.888      15.421      12.026      9.5134      7.7517      6.6142      5.9577      5.6412      5.5512      5.6076    
  5.7544      5.9459      6.1367      6.2789      3.9687      3.9529      3.9216      3.9105      3.9536      4.0787    
  4.3191      4.7272      5.3887      6.4351      8.0336      10.355      13.560      17.848      23.566      31.297    
  41.857      56.119      74.606      97.041      122.92      150.24      174.93      192.23      198.46      192.23    
  174.93      150.24      122.92      97.041      74.606      56.119      41.857      31.297      23.566      17.848    
  13.560      10.355      8.0336      6.4351      5.3887      4.7272      4.3191      4.0787      3.9536      3.9105    
  3.9216      3.9529      2.4417      2.4490      2.4885      2.5946      2.7923      3.0987      3.5436      4.1838    
  5.1153      6.4876      8.4940      11.334      15.211      20.431      27.560      37.542      51.665      71.247    
  97.041      130.04      169.72      211.76      249.23      275.07      284.28      275.07      249.23      211.76    
  169.72      130.04      97.041      71.247      51.665      37.542      27.560      20.431      15.211      11.334    
  8.4940      6.4876      5.1153      4.1838      3.5436      3.0987      2.7923      2.5946      2.4885      2.4490    
  1.4653      1.4868      1.5709      1.7534      2.0530      2.4807      3.0683      3.8811      5.0262      6.6694    
  9.0283      12.333      16.844      23.001      31.639      44.134      62.303      87.885      122.92      169.72    
  226.01      284.33      334.79      368.63      380.48      368.63      334.79      284.33      226.01      169.72    
  122.92      87.885      62.303      44.134      31.639      23.001      16.844      12.333      9.0283      6.6694    
  5.0262      3.8811      3.0683      2.4807      2.0530      1.7534      1.5709      1.4868     0.85401     0.88375    
 0.99556      1.2273      1.5939      2.1021      2.7885      3.7285      5.0386      6.8982      9.5460      13.244    
  18.317      25.352      35.473      50.496      72.752      104.60      150.24      211.76      284.33      357.06    
  417.56      456.71      470.12      456.71      417.56      357.06      284.33      211.76      150.24      104.60    
  72.752      50.496      35.473      25.352      18.317      13.244      9.5460      6.8982      5.0386      3.7285    
  2.7885      2.1021      1.5939      1.2273     0.99556     0.88375     0.48938     0.52372     0.65193     0.91436    
  1.3230      1.8825      2.6343      3.6626      5.0913      7.1091      9.9724      13.972      19.493      27.258    
  38.652      55.877      81.673      119.44      174.93      249.23      334.79      417.56      483.61      524.64    
  538.33      524.64      483.61      417.56      334.79      249.23      174.93      119.44      81.673      55.877    
  38.652      27.258      19.493      13.972      9.9724      7.1091      5.0913      3.6626      2.6343      1.8825    
  1.3230     0.91436     0.65193     0.52372     0.29786     0.33445     0.47124     0.75043      1.1823      1.7702    
  2.5596      3.6402      5.1405      7.2551      10.252      14.441      20.253      28.507      40.767      59.501    
  87.718      129.82      192.23      275.07      368.63      456.71      524.64      565.36      578.60      565.36    
  524.64      456.71      368.63      275.07      192.23      129.82      87.718      59.501      40.767      28.507    
  20.253      14.441      10.252      7.2551      5.1405      3.6402      2.5596      1.7702      1.1823     0.75043    
 0.47124     0.33445     0.23844     0.27570     0.41515     0.69966      1.1390      1.7361      2.5376      3.6356    
  5.1599      7.3070      10.348      14.603      20.516      28.942      41.511      60.782      89.867      133.56    
  198.46      284.28      380.48      470.12      538.33      578.60      591.57      578.60      538.33      470.12    
  380.48      284.28      198.46      133.56      89.867      60.782      41.511      28.942      20.516      14.603    
  10.348      7.3070      5.1599      3.6356      2.5376      1.7361      1.1390     0.69966     0.41515     0.27570    
 0.29786     0.33445     0.47124     0.75043      1.1823      1.7702      2.5596      3.6402      5.1405      7.2551    
  10.252      14.441      20.253      28.507      40.767      59.501      87.718      129.82      192.23      275.07    
  368.63      456.71      524.64      565.36      578.60      565.36      524.64      456.71      368.63      275.07    
  192.23      129.82      87.718      59.501      40.767      28.507      20.253      14.441      10.252      7.2551    
  5.1405      3.6402      2.5596      1.7702      1.1823     0.75043     0.47124     0.33445     0.48938     0.52372    
 0.65193     0.91436      1.3230      1.8825      2.6343      3.6626      5.0913      7.1091      9.9724      13.972    
  19.493      27.258      38.652      55.877      81.673      119.44      174.93      249.23      334.79      417.56    
  483.61      524.64      538.33      524.64      483.61      417.56      334.79      249.23      174.93      119.44    
  81.673      55.877      38.652      27.258      19.493      13.972      9.9724      7.1091      5.0913      3.6626    
  2.6343      1.8825      1.3230     0.91436     0.65193     0.52372     0.85401     0.88375     0.99556      1.2273    
  1.5939      2.1021      2.7885      3.7285      5.0386      6.8982      9.5460      13.244      18.317      25.352    
  35.473      50.496      72.752      104.60      150.24      211.76      284.33      357.06      417.56      456.71    
  470.12      456.71      417.56      357.06      284.33      211.76      150.24      104.60      72.752      50.496    
  35.473      25.352      18.317      13.244      9.5460      6.8982      5.0386      3.7285      2.7885      2.1021    
  1.5939      1.2273     0.99556     0.88375      1.4653      1.4868      1.5709      1.7534      2.0530      2.4807    
  3.0683      3.8811      5.0262      6.6694      9.0283      12.333      16.844      23.001      31.639      44.134    
  62.303      87.885      122.92      169.72      226.01      284.33      334.79      368.63      380.48      368.63    
  334.79      284.33      226.01      169.72      122.92      87.885      62.303      44.134      31.639      23.001    
  16.844      12.333      9.0283      6.6694      5.0262      3.8811      3.0683      2.4807      2.0530      1.7534    
  1.5709      1.4868      2.4417      2.4490      2.4885      2.5946      2.7923      3.0987      3.5436      4.1838    
  5.1153      6.4876      8.4940      11.334      15.211      20.431      27.560      37.542      51.665      71.247    
  97.041      130.04      169.72      211.76      249.23      275.07      284.28      275.07      249.23      211.76    
  169.72      130.04      97.041      71.247      51.665      37.542      27.560      20.431      15.211      11.334    
  8.4940      6.4876      5.1153      4.1838      3.5436      3.0987      2.7923      2.5946      2.4885      2.4490    
  3.9687      3.9529      3.9216      3.9105      3.9536      4.0787      4.3191      4.7272      5.3887      6.4351    
  8.0336      10.355      13.560      17.848      23.566      31.297      41.857      56.119      74.606      97.041    
  122.92      150.24      174.93      192.23      198.46      192.23      174.93      150.24      122.92      97.041    
  74.606      56.119      41.857      31.297      23.566      17.848      13.560      10.355      8.0336      6.4351    
  5.3887      4.7272      4.3191      4.0787      3.9536      3.9105      3.9216      3.9529      6.3319      6.2789    
  6.1367      5.9459      5.7544      5.6076      5.5512      5.6412      5.9577      6.6142      7.7517      9.5134    
  12.026      15.421      19.888      25.741      33.431      43.451      56.119      71.247      87.885      104.60    
  119.44      129.82      133.56      129.82      119.44      104.60      87.885      71.247      56.119      43.451    
  33.431      25.741      19.888      15.421      12.026      9.5134      7.7517      6.6142      5.9577      5.6412    
  5.5512      5.6076      5.7544      5.9459      6.1367      6.2789      9.9496      9.8389      9.5259      9.0621    
  8.5164      7.9617      7.4696      7.1126      6.9735      7.1526      7.7654      8.9277      10.739      13.285    
  16.661      21.007      26.523      33.431      41.857      51.665      62.303      72.752      81.673      87.718    
  89.867      87.718      81.673      72.752      62.303      51.665      41.857      33.431      26.523      21.007    
  16.661      13.285      10.739      8.9277      7.7654      7.1526      6.9735      7.1126      7.4696      7.9617    
  8.5164      9.0621      9.5259      9.8389      15.388      15.190      14.622      13.753      12.683      11.526    
  10.396      9.4014      8.6408      8.2115      8.2078      8.7174      9.8128      11.547      13.961      17.097    
  21.007      25.741      31.297      37.542      44.134      50.496      55.877      59.501      60.782      59.501    
  55.877      50.496      44.134      37.542      31.297      25.741      21.007      17.097      13.961      11.547    
  9.8128      8.7174      8.2078      8.2115      8.6408      9.4014      10.396      11.526      12.683      13.753    
  14.622      15.190      23.324      23.003      22.071      20.624      18.806      16.787      14.746      12.847    
  11.226      9.9934      9.2321      9.0029      9.3472      10.288      11.829      13.961      16.661      19.888    
  23.566      27.560      31.639      35.473      38.652      40.767      41.511      40.767      38.652      35.473    
  31.639      27.560      23.566      19.888      16.661      13.961      11.829      10.288      9.3472      9.0029    
  9.2321      9.9934      11.226      12.847      14.746      16.787      18.806      20.624      22.071      23.003    
  34.315      33.841      32.455      30.270      27.466      24.282      20.993      17.847      15.049      12.742    
  11.015      9.9092      9.4315      9.5676      10.288      11.547      13.285      15.421      17.848      20.431    
  23.001      25.352      27.258      28.507      28.942      28.507      27.258      25.352      23.001      20.431    
  17.848      15.421      13.285      11.547      10.288      9.5676      9.4315      9.9092      11.015      12.742    
  15.049      17.847      20.993      24.282      27.466      30.270      32.455      33.841      48.141      47.513    
  45.669      42.722      38.867      34.370      29.562      24.805      20.447      16.723      13.751      11.567    
  10.147      9.4315      9.3472      9.8128      10.739      12.026      13.560      15.211      16.844      18.317    
  19.493      20.253      20.516      20.253      19.493      18.317      16.844      15.211      13.560      12.026    
  10.739      9.8128      9.3472      9.4315      10.147      11.567      13.751      16.723      20.447      24.805    
  29.562      34.370      38.867      42.722      45.669      47.513      63.874      63.123      60.900      57.299    
  52.494      46.750      40.419      33.922      27.704      22.184      17.630      14.106      11.567      9.9092    
  9.0029      8.7174      8.9277      9.5134      10.355      11.334      12.333      13.244      13.972      14.441    
  14.603      14.441      13.972      13.244      12.333      11.334      10.355      9.5134      8.9277      8.7174    
  9.0029      9.9092      11.567      14.106      17.630      22.184      27.704      33.922      40.419      46.750    
  52.494      57.299      60.900      63.123      79.911      79.109      76.710      72.748      67.319      60.623    
  52.988      44.864      36.779      29.267      22.795      17.630      13.751      11.015      9.2321      8.2078    
  7.7654      7.7517      8.0336      8.4940      9.0283      9.5460      9.9724      10.252      10.348      10.252    
  9.9724      9.5460      9.0283      8.4940      8.0336      7.7517      7.7654      8.2078      9.2321      11.015    
  13.751      17.630      22.795      29.267      36.779      44.864      52.988      60.623      67.319      72.748    
  76.710      79.109      94.013      93.289      91.076      87.282      81.836      74.779      66.340      56.951    
  47.207      37.772      29.267      22.184      16.723      12.742      9.9934      8.2115      7.1526      6.6142    
  6.4351      6.4876      6.6694      6.8982      7.1091      7.2551      7.3070      7.2551      7.1091      6.8982    
  6.6694      6.4876      6.4351      6.6142      7.1526      8.2115      9.9934      12.742      16.723      22.184    
  29.267      37.772      47.207      56.951      66.340      74.779      81.836      87.282      91.076      93.289    
  103.60      103.14      101.64      98.784      94.223      87.714      79.278      69.263      58.306      47.207    
  36.779      27.704      20.447      15.049      11.226      8.6408      6.9735      5.9577      5.3887      5.1153    
  5.0262      5.0386      5.0913      5.1405      5.1599      5.1405      5.0913      5.0386      5.0262      5.1153    
  5.3887      5.9577      6.9735      8.6408      11.226      15.049      20.447      27.704      36.779      47.207    
  58.306      69.263      79.278      87.714      94.223      98.784      101.64      103.14      106.30      106.33    
  106.18      105.23      102.69      97.889      90.524      80.769      69.263      56.951      44.864      33.922    
  24.805      17.847      12.847      9.4014      7.1126      5.6412      4.7272      4.1838      3.8811      3.7285    
  3.6626      3.6402      3.6356      3.6402      3.6626      3.7285      3.8811      4.1838      4.7272      5.6412    
  7.1126      9.4014      12.847      17.847      24.805      33.922      44.864      56.951      69.263      80.769    
  90.524      97.889      102.69      105.23      106.18      106.33      100.59      101.35      103.23      105.21    
  105.91      104.10      98.996      90.524      79.278      66.340      52.988      40.419      29.562      20.993    
  14.746      10.396      7.4696      5.5512      4.3191      3.5436      3.0683      2.7885      2.6343      2.5596    
  2.5376      2.5596      2.6343      2.7885      3.0683      3.5436      4.3191      5.5512      7.4696      10.396    
  14.746      20.993      29.562      40.419      52.988      66.340      79.278      90.524      98.996      104.10    
  105.91      105.21      103.23      101.35      86.491      88.185      92.698      98.489      103.52      105.83    
  104.10      97.889      87.714      74.779      60.623      46.750      34.370      24.282      16.787      11.526    
  7.9617      5.6076      4.0787      3.0987      2.4807      2.1021      1.8825      1.7702      1.7361      1.7702    
  1.8825      2.1021      2.4807      3.0987      4.0787      5.6076      7.9617      11.526      16.787      24.282    
  34.370      46.750      60.623      74.779      87.714      97.889      104.10      105.83      103.52      98.489    
  92.698      88.185      65.878      68.631      76.124      86.280      96.318      103.52      105.91      102.69    
  94.223      81.836      67.319      52.494      38.867      27.466      18.806      12.683      8.5164      5.7544    
  3.9536      2.7923      2.0530      1.5939      1.3230      1.1823      1.1390      1.1823      1.3230      1.5939    
  2.0530      2.7923      3.9536      5.7544      8.5164      12.683      18.806      27.466      38.867      52.494    
  67.319      81.836      94.223      102.69      105.91      103.52      96.318      86.280      76.124      68.631    
  42.361      46.169      56.638      71.175      86.280      98.489      105.21      105.23      98.784      87.282    
  72.748      57.299      42.722      30.270      20.624      13.753      9.0621      5.9459      3.9105      2.5946    
  1.7534      1.2273     0.91436     0.75043     0.69966     0.75043     0.91436      1.2273      1.7534      2.5946    
  3.9105      5.9459      9.0621      13.753      20.624      30.270      42.722      57.299      72.748      87.282    
  98.784      105.23      105.21      98.489      86.280      71.175      56.638      46.169      20.609      25.319    
  38.337      56.638      76.124      92.698      103.23      106.18      101.64      91.076      76.710      60.900    
  45.669      32.455      22.071      14.622      9.5259      6.1367      3.9216      2.4885      1.5709     0.99556    
 0.65193     0.47124     0.41515     0.47124     0.65193     0.99556      1.5709      2.4885      3.9216      6.1367    
  9.5259      14.622      22.071      32.455      45.669      60.900      76.710      91.076      101.64      106.18    
  103.23      92.698      76.124      56.638      38.337      25.319      5.2595      10.579      25.319      46.169    
  68.631      88.185      101.35      106.33      103.14      93.289      79.109      63.123      47.513      33.841    
  23.003      15.190      9.8389      6.2789      3.9529      2.4490      1.4868     0.88375     0.52372     0.33445    
 0.27570     0.33445     0.52372     0.88375      1.4868      2.4490      3.9529      6.2789      9.8389      15.190    
  23.003      33.841      47.513      63.123      79.109      93.289      103.14      106.33      101.35      88.185    
  68.631      46.169      25.319      10.579      5.2595      10.579      25.319      46.169      68.631      88.185    
  101.35      106.33      103.14      93.289      79.109      63.123      47.513      33.841      23.003      15.190    
  9.8389      6.2789      3.9529      2.4490      1.4868     0.88375     0.52372     0.33445     0.27570     0.33445    
 0.52372     0.88375      1.4868      2.4490      3.9529      6.2789      9.8389      15.190      23.003      33.841    
  47.513      63.123      79.109      93.289      103.14      106.33      101.35      88.185      68.631      46.169    
  25.319      10.579      10.579      15.689      29.839      49.814      71.254      89.782      102.04      106.31    
  102.66      92.557      78.308      62.377      46.892      33.373      22.686      14.996      9.7299      6.2268    
  3.9373      2.4563      1.5081     0.91328     0.55786     0.37086     0.31278     0.37086     0.55786     0.91328    
  1.5081      2.4563      3.9373      6.2268      9.7299      14.996      22.686      33.373      46.892      62.377    
  78.308      92.557      102.66      106.31      102.04      89.782      71.254      49.814      29.839      15.689    
  25.319      29.839      42.318      59.821      78.377      94.020      103.74      106.05      101.10      90.325    
  75.913      60.169      45.067      32.005      21.769      14.437      9.4220      6.0868      3.9065      2.4954    
  1.5912      1.0239     0.68484     0.50642     0.45101     0.50642     0.68484      1.0239      1.5912      2.4954    
  3.9065      6.0868      9.4220      14.437      21.769      32.005      45.067      60.169      75.913      90.325    