unknown system                          
   1.00000000000000     
     4.192000    0.000000    0.000000
     0.000000    4.192000    0.000000
     0.000000    0.000000    4.192000
   Ba   Zr   O 
     1     1     3
Direct
  0.000000  0.000000  0.000000
  0.500000  0.500000  0.500000
  0.500000  0.500000  0.000000
  0.500000  0.000000  0.500000
  0.000000  0.500000  0.500000
 
   48   48   48
 -.27495029746E+00 0.52594567058E+01 0.20608646983E+02 0.42360981449E+02 0.65877647776E+02
 0.86490548439E+02 0.10058958766E+03 0.10629767279E+03 0.10360374996E+03 0.94013248163E+02
 0.79910673265E+02 0.63874334169E+02 0.48140532714E+02 0.34315478453E+02 0.23324360239E+02
 0.15387941016E+02 0.99496396066E+01 0.63318904439E+01 0.39687420576E+01 0.24416827484E+01
 0.14653275102E+01 0.85400685251E+00 0.48938367189E+00 0.29785851714E+00 0.23844225874E+00
 0.29785851714E+00 0.48938367189E+00 0.85400685251E+00 0.14653275102E+01 0.24416827484E+01
 0.39687420576E+01 0.63318904439E+01 0.99496396066E+01 0.15387941016E+02 0.23324360239E+02
 0.34315478453E+02 0.48140532714E+02 0.63874334169E+02 0.79910673265E+02 0.94013248163E+02
 0.10360374996E+03 0.10629767279E+03 0.10058958766E+03 0.86490548439E+02 0.65877647776E+02
 0.42360981449E+02 0.20608646983E+02 0.52594567058E+01 0.52594567058E+01 0.10578743265E+02
 0.25319073817E+02 0.46169333300E+02 0.68631172552E+02 0.88185156849E+02 0.10134786537E+03
 0.10632600839E+03 0.10314186212E+03 0.93288962098E+02 0.79108843693E+02 0.63123154544E+02
 0.47513108032E+02 0.33841057550E+02 0.23002736499E+02 0.15190394939E+02 0.98388825599E+01
 0.62789342646E+01 0.39529107713E+01 0.24490350271E+01 0.14867793325E+01 0.88374621111E+00
 0.52372287831E+00 0.33445010342E+00 0.27570082380E+00 0.33445010342E+00 0.52372287831E+00
 0.88374621111E+00 0.14867793325E+01 0.24490350271E+01 0.39529107713E+01 0.62789342646E+01
 0.98388825599E+01 0.15190394939E+02 0.23002736499E+02 0.33841057550E+02 0.47513108032E+02
 0.63123154544E+02 0.79108843693E+02 0.93288962098E+02 0.10314186212E+03 0.10632600839E+03
 0.10134786537E+03 0.88185156849E+02 0.68631172552E+02 0.46169333300E+02 0.25319073817E+02
 0.10578743265E+02 0.20608646983E+02 0.25319073817E+02 0.38337024052E+02 0.56638120127E+02
 0.76124033213E+02 0.92697645024E+02 0.10323407813E+03 0.10617581417E+03 0.10163725645E+03
 0.91076003190E+02 0.76710100383E+02 0.60899510379E+02 0.45668692927E+02 0.32455362163E+02
 0.22071013042E+02 0.14622466573E+02 0.95258938431E+01 0.61366712436E+01 0.39215977186E+01
 0.24885390703E+01 0.15709345951E+01 0.99555862238E+00 0.65192868043E+00 0.47123842248E+00
 0.41514705366E+00 0.47123842248E+00 0.65192868043E+00 0.99555862238E+00 0.15709345951E+01
 0.24885390703E+01 0.39215977186E+01 0.61366712436E+01 0.95258938431E+01 0.14622466573E+02
 0.22071013042E+02 0.32455362163E+02 0.45668692927E+02 0.60899510379E+02 0.76710100383E+02
 0.91076003190E+02 0.10163725645E+03 0.10617581417E+03 0.10323407813E+03 0.92697645024E+02
 0.76124033213E+02 0.56638120127E+02 0.38337024052E+02 0.25319073817E+02 0.42360981449E+02
 0.46169333300E+02 0.56638120127E+02 0.71174523920E+02 0.86280449829E+02 0.98489468406E+02
 0.10520837767E+03 0.10522507032E+03 0.98783870101E+02 0.87281979102E+02 0.72748276133E+02
 0.57298579551E+02 0.42722088895E+02 0.30269995417E+02 0.20624135107E+02 0.13753261009E+02
 0.90620799324E+01 0.59459173125E+01 0.39104967075E+01 0.25946153527E+01 0.17533528391E+01
 0.12273239712E+01 0.91436181511E+00 0.75042799690E+00 0.69966302155E+00 0.75042799690E+00
 0.91436181511E+00 0.12273239712E+01 0.17533528391E+01 0.25946153527E+01 0.39104967075E+01
 0.59459173125E+01 0.90620799324E+01 0.13753261009E+02 0.20624135107E+02 0.30269995417E+02
 0.42722088895E+02 0.57298579551E+02 0.72748276133E+02 0.87281979102E+02 0.98783870101E+02
 0.10522507032E+03 0.10520837767E+03 0.98489468406E+02 0.86280449829E+02 0.71174523920E+02
 0.56638120127E+02 0.46169333300E+02 0.65877647776E+02 0.68631172552E+02 0.76124033213E+02
 0.86280449829E+02 0.96318469657E+02 0.10351920953E+03 0.10591329007E+03 0.10268641784E+03
 0.94223053180E+02 0.81835836163E+02 0.67319448829E+02 0.52493994546E+02 0.38866568048E+02
 0.27465922584E+02 0.18805604495E+02 0.12682951204E+02 0.85163510432E+01 0.57544483083E+01
 0.39535951296E+01 0.27922800810E+01 0.20530412024E+01 0.15938817003E+01 0.13230103174E+01
 0.11823068869E+01 0.11389685892E+01 0.11823068869E+01 0.13230103174E+01 0.15938817003E+01
 0.20530412024E+01 0.27922800810E+01 0.39535951296E+01 0.57544483083E+01 0.85163510432E+01
 0.12682951204E+02 0.18805604495E+02 0.27465922584E+02 0.38866568048E+02 0.52493994546E+02
 0.67319448829E+02 0.81835836163E+02 0.94223053180E+02 0.10268641784E+03 0.10591329007E+03
 0.10351920953E+03 0.96318469657E+02 0.86280449829E+02 0.76124033213E+02 0.68631172552E+02
 0.86490548439E+02 0.88185156849E+02 0.92697645024E+02 0.98489468406E+02 0.10351920953E+03
 0.10583489793E+03 0.10409884318E+03 0.97889127870E+02 0.87714048552E+02 0.74779459075E+02
 0.60623005595E+02 0.46749656049E+02 0.34370314884E+02 0.24282418229E+02 0.16787245549E+02
 0.11525910772E+02 0.79617341891E+01 0.56076175830E+01 0.40787304519E+01 0.30986876833E+01
 0.24807354170E+01 0.21021093180E+01 0.18824663322E+01 0.17702467115E+01 0.17360502368E+01
 0.17702467115E+01 0.18824663322E+01 0.21021093180E+01 0.24807354170E+01 0.30986876833E+01
 0.40787304519E+01 0.56076175830E+01 0.79617341891E+01 0.11525910772E+02 0.16787245549E+02
 0.24282418229E+02 0.34370314884E+02 0.46749656049E+02 0.60623005595E+02 0.74779459075E+02
 0.87714048552E+02 0.97889127870E+02 0.10409884318E+03 0.10583489793E+03 0.10351920953E+03
 0.98489468406E+02 0.92697645024E+02 0.88185156849E+02 0.10058958766E+03 0.10134786537E+03
 0.10323407813E+03 0.10520837767E+03 0.10591329007E+03 0.10409884318E+03 0.98996221129E+02
 0.90523890347E+02 0.79278205528E+02 0.66340086665E+02 0.52987532351E+02 0.40418734649E+02
 0.29562177050E+02 0.20992808258E+02 0.14746419780E+02 0.10396401703E+02 0.74696041951E+01
 0.55511515562E+01 0.43191170843E+01 0.35435974094E+01 0.30682601351E+01 0.27885330542E+01
 0.26343181151E+01 0.25595738184E+01 0.25375994738E+01 0.25595738184E+01 0.26343181151E+01
 0.27885330542E+01 0.30682601351E+01 0.35435974094E+01 0.43191170843E+01 0.55511515562E+01
 0.74696041951E+01 0.10396401703E+02 0.14746419780E+02 0.20992808258E+02 0.29562177050E+02
 0.40418734649E+02 0.52987532351E+02 0.66340086665E+02 0.79278205528E+02 0.90523890347E+02
 0.98996221129E+02 0.10409884318E+03 0.10591329007E+03 0.10520837767E+03 0.10323407813E+03
 0.10134786537E+03 0.10629767279E+03 0.10632600839E+03 0.10617581417E+03 0.10522507032E+03
 0.10268641784E+03 0.97889127870E+02 0.90523890347E+02 0.80768973042E+02 0.69263359661E+02
 0.56950944823E+02 0.44863667155E+02 0.33921732582E+02 0.24804774717E+02 0.17847431050E+02
 0.12846629257E+02 0.94013852796E+01 0.71126227269E+01 0.56412001262E+01 0.47271621869E+01
 0.41838131277E+01 0.38810913769E+01 0.37285007805E+01 0.36626282474E+01 0.36402385263E+01
 0.36356378136E+01 0.36402385263E+01 0.36626282474E+01 0.37285007805E+01 0.38810913769E+01
 0.41838131277E+01 0.47271621869E+01 0.56412001262E+01 0.71126227269E+01 0.94013852796E+01
 0.12846629257E+02 0.17847431050E+02 0.24804774717E+02 0.33921732582E+02 0.44863667155E+02
 0.56950944823E+02 0.69263359661E+02 0.80768973042E+02 0.90523890347E+02 0.97889127870E+02
 0.10268641784E+03 0.10522507032E+03 0.10617581417E+03 0.10632600839E+03 0.10360374996E+03
 0.10314186212E+03 0.10163725645E+03 0.98783870101E+02 0.94223053180E+02 0.87714048552E+02
 0.79278205528E+02 0.69263359661E+02 0.58305675905E+02 0.47207234484E+02 0.36778970563E+02
 0.27704382339E+02 0.20447432238E+02 0.15048556210E+02 0.11225866764E+02 0.86408496560E+01
 0.69734983397E+01 0.59576818590E+01 0.53887485312E+01 0.51153313414E+01 0.50261794607E+01
 0.50386420231E+01 0.50912927697E+01 0.51405432337E+01 0.51599331146E+01 0.51405432337E+01
 0.50912927697E+01 0.50386420231E+01 0.50261794607E+01 0.51153313414E+01 0.53887485312E+01
 0.59576818590E+01 0.69734983397E+01 0.86408496560E+01 0.11225866764E+02 0.15048556210E+02
 0.20447432238E+02 0.27704382339E+02 0.36778970563E+02 0.47207234484E+02 0.58305675905E+02
 0.69263359661E+02 0.79278205528E+02 0.87714048552E+02 0.94223053180E+02 0.98783870101E+02
 0.10163725645E+03 0.10314186212E+03 0.94013248163E+02 0.93288962098E+02 0.91076003190E+02
 0.87281979102E+02 0.81835836163E+02 0.74779459075E+02 0.66340086665E+02 0.56950944823E+02
 0.47207234484E+02 0.37772030329E+02 0.29267192353E+02 0.22184149605E+02 0.16723128736E+02
 0.12741704624E+02 0.99933723247E+01 0.82114974023E+01 0.71525991600E+01 0.66142123801E+01
 0.64351021414E+01 0.64876072270E+01 0.66694173636E+01 0.68981649534E+01 0.71091351967E+01
 0.72550725772E+01 0.73069843561E+01 0.72550725772E+01 0.71091351967E+01 0.68981649534E+01
 0.66694173636E+01 0.64876072270E+01 0.64351021414E+01 0.66142123801E+01 0.71525991600E+01
 0.82114974023E+01 0.99933723247E+01 0.12741704624E+02 0.16723128736E+02 0.22184149605E+02
 0.29267192353E+02 0.37772030329E+02 0.47207234484E+02 0.56950944823E+02 0.66340086665E+02
 0.74779459075E+02 0.81835836163E+02 0.87281979102E+02 0.91076003190E+02 0.93288962098E+02
 0.79910673265E+02 0.79108843693E+02 0.76710100383E+02 0.72748276133E+02 0.67319448829E+02
 0.60623005595E+02 0.52987532351E+02 0.44863667155E+02 0.36778970563E+02 0.29267192353E+02
 0.22795085762E+02 0.17630432470E+02 0.13751177774E+02 0.11015023870E+02 0.92321113988E+01
 0.82078408004E+01 0.77654384800E+01 0.77516723568E+01 0.80336418699E+01 0.84939534266E+01
 0.90282963220E+01 0.95460143182E+01 0.99724176155E+01 0.10251516089E+02 0.10348493382E+02
 0.10251516089E+02 0.99724176155E+01 0.95460143182E+01 0.90282963220E+01 0.84939534266E+01
 0.80336418699E+01 0.77516723568E+01 0.77654384800E+01 0.82078408004E+01 0.92321113988E+01
 0.11015023870E+02 0.13751177774E+02 0.17630432470E+02 0.22795085762E+02 0.29267192353E+02
 0.36778970563E+02 0.44863667155E+02 0.52987532351E+02 0.60623005595E+02 0.67319448829E+02
 0.72748276133E+02 0.76710100383E+02 0.79108843693E+02 0.63874334169E+02 0.63123154544E+02
 0.60899510379E+02 0.57298579551E+02 0.52493994546E+02 0.46749656049E+02 0.40418734649E+02
 0.33921732582E+02 0.27704382339E+02 0.22184149605E+02 0.17630432470E+02 0.14106098918E+02
 0.11567243255E+02 0.99092043496E+01 0.90029171162E+01 0.87174315279E+01 0.89277277120E+01
 0.95133814797E+01 0.10355115249E+02 0.11333830629E+02 0.12333153809E+02 0.13244324342E+02
 0.13972133854E+02 0.14441390995E+02 0.14603442638E+02 0.14441390995E+02 0.13972133854E+02
 0.13244324342E+02 0.12333153809E+02 0.11333830629E+02 0.10355115249E+02 0.95133814797E+01
 0.89277277120E+01 0.87174315279E+01 0.90029171162E+01 0.99092043496E+01 0.11567243255E+02
 0.14106098918E+02 0.17630432470E+02 0.22184149605E+02 0.27704382339E+02 0.33921732582E+02
 0.40418734649E+02 0.46749656049E+02 0.52493994546E+02 0.57298579551E+02 0.60899510379E+02
 0.63123154544E+02 0.48140532714E+02 0.47513108032E+02 0.45668692927E+02 0.42722088895E+02
 0.38866568048E+02 0.34370314884E+02 0.29562177050E+02 0.24804774717E+02 0.20447432238E+02
 0.16723128736E+02 0.13751177774E+02 0.11567243255E+02 0.10146891602E+02 0.94315037429E+01
 0.93471762770E+01 0.98127795262E+01 0.10739372755E+02 0.12026421052E+02 0.13559520693E+02
 0.15211234293E+02 0.16844337431E+02 0.18317185851E+02 0.19492735840E+02 0.20252801651E+02
 0.20515902148E+02 0.20252801651E+02 0.19492735840E+02 0.18317185851E+02 0.16844337431E+02
 0.15211234293E+02 0.13559520693E+02 0.12026421052E+02 0.10739372755E+02 0.98127795262E+01
 0.93471762770E+01 0.94315037429E+01 0.10146891602E+02 0.11567243255E+02 0.13751177774E+02
 0.16723128736E+02 0.20447432238E+02 0.24804774717E+02 0.29562177050E+02 0.34370314884E+02
 0.38866568048E+02 0.42722088895E+02 0.45668692927E+02 0.47513108032E+02 0.34315478453E+02
 0.33841057550E+02 0.32455362163E+02 0.30269995417E+02 0.27465922584E+02 0.24282418229E+02
 0.20992808258E+02 0.17847431050E+02 0.15048556210E+02 0.12741704624E+02 0.11015023870E+02
 0.99092043496E+01 0.94315037429E+01 0.95675599231E+01 0.10287599999E+02 0.11547271747E+02
 0.13285408997E+02 0.15420725949E+02 0.17847719557E+02 0.20431212734E+02 0.23000932745E+02
 0.25351781342E+02 0.27258126978E+02 0.28506707829E+02 0.28941996103E+02 0.28506707829E+02
 0.27258126978E+02 0.25351781342E+02 0.23000932745E+02 0.20431212734E+02 0.17847719557E+02
 0.15420725949E+02 0.13285408997E+02 0.11547271747E+02 0.10287599999E+02 0.95675599231E+01
 0.94315037429E+01 0.99092043496E+01 0.11015023870E+02 0.12741704624E+02 0.15048556210E+02
 0.17847431050E+02 0.20992808258E+02 0.24282418229E+02 0.27465922584E+02 0.30269995417E+02
 0.32455362163E+02 0.33841057550E+02 0.23324360239E+02 0.23002736499E+02 0.22071013042E+02
 0.20624135107E+02 0.18805604495E+02 0.16787245549E+02 0.14746419780E+02 0.12846629257E+02
 0.11225866764E+02 0.99933723247E+01 0.92321113988E+01 0.90029171162E+01 0.93471762770E+01
 0.10287599999E+02 0.11829090558E+02 0.13961348601E+02 0.16661072161E+02 0.19887605919E+02
 0.23566255207E+02 0.27559874617E+02 0.31639390962E+02 0.35472637835E+02 0.38651813431E+02
 0.40767304009E+02 0.41510825275E+02 0.40767304009E+02 0.38651813431E+02 0.35472637835E+02
 0.31639390962E+02 0.27559874617E+02 0.23566255207E+02 0.19887605919E+02 0.16661072161E+02
 0.13961348601E+02 0.11829090558E+02 0.10287599999E+02 0.93471762770E+01 0.90029171162E+01
 0.92321113988E+01 0.99933723247E+01 0.11225866764E+02 0.12846629257E+02 0.14746419780E+02
 0.16787245549E+02 0.18805604495E+02 0.20624135107E+02 0.22071013042E+02 0.23002736499E+02
 0.15387941016E+02 0.15190394939E+02 0.14622466573E+02 0.13753261009E+02 0.12682951204E+02
 0.11525910772E+02 0.10396401703E+02 0.94013852796E+01 0.86408496560E+01 0.82114974023E+01
 0.82078408004E+01 0.87174315279E+01 0.98127795262E+01 0.11547271747E+02 0.13961348601E+02
 0.17096921824E+02 0.21006921791E+02 0.25741294073E+02 0.31297413459E+02 0.37541804794E+02
 0.44133681739E+02 0.50496368087E+02 0.55876906147E+02 0.59501213113E+02 0.60782445719E+02
 0.59501213113E+02 0.55876906147E+02 0.50496368087E+02 0.44133681739E+02 0.37541804794E+02
 0.31297413459E+02 0.25741294073E+02 0.21006921791E+02 0.17096921824E+02 0.13961348601E+02
 0.11547271747E+02 0.98127795262E+01 0.87174315279E+01 0.82078408004E+01 0.82114974023E+01
 0.86408496560E+01 0.94013852796E+01 0.10396401703E+02 0.11525910772E+02 0.12682951204E+02
 0.13753261009E+02 0.14622466573E+02 0.15190394939E+02 0.99496396066E+01 0.98388825599E+01
 0.95258938431E+01 0.90620799324E+01 0.85163510432E+01 0.79617341891E+01 0.74696041951E+01
 0.71126227269E+01 0.69734983397E+01 0.71525991600E+01 0.77654384800E+01 0.89277277120E+01
 0.10739372755E+02 0.13285408997E+02 0.16661072161E+02 0.21006921791E+02 0.26523384360E+02
 0.33430961975E+02 0.41856817285E+02 0.51665459791E+02 0.62302641490E+02 0.72751894529E+02
 0.81673302855E+02 0.87717869614E+02 0.89866665277E+02 0.87717869614E+02 0.81673302855E+02
 0.72751894529E+02 0.62302641490E+02 0.51665459791E+02 0.41856817285E+02 0.33430961975E+02
 0.26523384360E+02 0.21006921791E+02 0.16661072161E+02 0.13285408997E+02 0.10739372755E+02
 0.89277277120E+01 0.77654384800E+01 0.71525991600E+01 0.69734983397E+01 0.71126227269E+01
 0.74696041951E+01 0.79617341891E+01 0.85163510432E+01 0.90620799324E+01 0.95258938431E+01
 0.98388825599E+01 0.63318904439E+01 0.62789342646E+01 0.61366712436E+01 0.59459173125E+01
 0.57544483083E+01 0.56076175830E+01 0.55511515562E+01 0.56412001262E+01 0.59576818590E+01
 0.66142123801E+01 0.77516723568E+01 0.95133814797E+01 0.12026421052E+02 0.15420725949E+02
 0.19887605919E+02 0.25741294073E+02 0.33430961975E+02 0.43451403984E+02 0.56118713220E+02
 0.71246640530E+02 0.87884519608E+02 0.10460435403E+03 0.11944103368E+03 0.12981837068E+03
 0.13355972228E+03 0.12981837068E+03 0.11944103368E+03 0.10460435403E+03 0.87884519608E+02
 0.71246640530E+02 0.56118713220E+02 0.43451403984E+02 0.33430961975E+02 0.25741294073E+02
 0.19887605919E+02 0.15420725949E+02 0.12026421052E+02 0.95133814797E+01 0.77516723568E+01
 0.66142123801E+01 0.59576818590E+01 0.56412001262E+01 0.55511515562E+01 0.56076175830E+01
 0.57544483083E+01 0.59459173125E+01 0.61366712436E+01 0.62789342646E+01 0.39687420576E+01
 0.39529107713E+01 0.39215977186E+01 0.39104967075E+01 0.39535951296E+01 0.40787304519E+01
 0.43191170843E+01 0.47271621869E+01 0.53887485312E+01 0.64351021414E+01 0.80336418699E+01
 0.10355115249E+02 0.13559520693E+02 0.17847719557E+02 0.23566255207E+02 0.31297413459E+02
 0.41856817285E+02 0.56118713220E+02 0.74605814569E+02 0.97040683927E+02 0.12292141337E+03
 0.15024220328E+03 0.17492744809E+03 0.19223155406E+03 0.19845963013E+03 0.19223155406E+03
 0.17492744809E+03 0.15024220328E+03 0.12292141337E+03 0.97040683927E+02 0.74605814569E+02
 0.56118713220E+02 0.41856817285E+02 0.31297413459E+02 0.23566255207E+02 0.17847719557E+02
 0.13559520693E+02 0.10355115249E+02 0.80336418699E+01 0.64351021414E+01 0.53887485312E+01
 0.47271621869E+01 0.43191170843E+01 0.40787304519E+01 0.39535951296E+01 0.39104967075E+01
 0.39215977186E+01 0.39529107713E+01 0.24416827484E+01 0.24490350271E+01 0.24885390703E+01
 0.25946153527E+01 0.27922800810E+01 0.30986876833E+01 0.35435974094E+01 0.41838131277E+01
 0.51153313414E+01 0.64876072270E+01 0.84939534266E+01 0.11333830629E+02 0.15211234293E+02
 0.20431212734E+02 0.27559874617E+02 0.37541804794E+02 0.51665459791E+02 0.71246640530E+02
 0.97040683927E+02 0.13004135533E+03 0.16972123128E+03 0.21176033350E+03 0.24923376482E+03
 0.27507317500E+03 0.28427585990E+03 0.27507317500E+03 0.24923376482E+03 0.21176033350E+03
 0.16972123128E+03 0.13004135533E+03 0.97040683927E+02 0.71246640530E+02 0.51665459791E+02
 0.37541804794E+02 0.27559874617E+02 0.20431212734E+02 0.15211234293E+02 0.11333830629E+02
 0.84939534266E+01 0.64876072270E+01 0.51153313414E+01 0.41838131277E+01 0.35435974094E+01
 0.30986876833E+01 0.27922800810E+01 0.25946153527E+01 0.24885390703E+01 0.24490350271E+01
 0.14653275102E+01 0.14867793325E+01 0.15709345951E+01 0.17533528391E+01 0.20530412024E+01
 0.24807354170E+01 0.30682601351E+01 0.38810913769E+01 0.50261794607E+01 0.66694173636E+01
 0.90282963220E+01 0.12333153809E+02 0.16844337431E+02 0.23000932745E+02 0.31639390962E+02
 0.44133681739E+02 0.62302641490E+02 0.87884519608E+02 0.12292141337E+03 0.16972123128E+03
 0.22600594825E+03 0.28433113385E+03 0.33478576624E+03 0.36862922797E+03 0.38048412332E+03
 0.36862922797E+03 0.33478576624E+03 0.28433113385E+03 0.22600594825E+03 0.16972123128E+03
 0.12292141337E+03 0.87884519608E+02 0.62302641490E+02 0.44133681739E+02 0.31639390962E+02
 0.23000932745E+02 0.16844337431E+02 0.12333153809E+02 0.90282963220E+01 0.66694173636E+01
 0.50261794607E+01 0.38810913769E+01 0.30682601351E+01 0.24807354170E+01 0.20530412024E+01
 0.17533528391E+01 0.15709345951E+01 0.14867793325E+01 0.85400685251E+00 0.88374621111E+00
 0.99555862238E+00 0.12273239712E+01 0.15938817003E+01 0.21021093180E+01 0.27885330542E+01
 0.37285007805E+01 0.50386420231E+01 0.68981649534E+01 0.95460143182E+01 0.13244324342E+02
 0.18317185851E+02 0.25351781342E+02 0.35472637835E+02 0.50496368087E+02 0.72751894529E+02
 0.10460435403E+03 0.15024220328E+03 0.21176033350E+03 0.28433113385E+03 0.35706007067E+03
 0.41756417789E+03 0.45671217245E+03 0.47012288606E+03 0.45671217245E+03 0.41756417789E+03
 0.35706007067E+03 0.28433113385E+03 0.21176033350E+03 0.15024220328E+03 0.10460435403E+03
 0.72751894529E+02 0.50496368087E+02 0.35472637835E+02 0.25351781342E+02 0.18317185851E+02
 0.13244324342E+02 0.95460143182E+01 0.68981649534E+01 0.50386420231E+01 0.37285007805E+01
 0.27885330542E+01 0.21021093180E+01 0.15938817003E+01 0.12273239712E+01 0.99555862238E+00
 0.88374621111E+00 0.48938367189E+00 0.52372287831E+00 0.65192868043E+00 0.91436181511E+00
 0.13230103174E+01 0.18824663322E+01 0.26343181151E+01 0.36626282474E+01 0.50912927697E+01
 0.71091351967E+01 0.99724176155E+01 0.13972133854E+02 0.19492735840E+02 0.27258126978E+02
 0.38651813431E+02 0.55876906147E+02 0.81673302855E+02 0.11944103368E+03 0.17492744809E+03
 0.24923376482E+03 0.33478576624E+03 0.41756417789E+03 0.48361473541E+03 0.52464202866E+03
 0.53832619041E+03 0.52464202866E+03 0.48361473541E+03 0.41756417789E+03 0.33478576624E+03
 0.24923376482E+03 0.17492744809E+03 0.11944103368E+03 0.81673302855E+02 0.55876906147E+02
 0.38651813431E+02 0.27258126978E+02 0.19492735840E+02 0.13972133854E+02 0.99724176155E+01
 0.71091351967E+01 0.50912927697E+01 0.36626282474E+01 0.26343181151E+01 0.18824663322E+01
 0.13230103174E+01 0.91436181511E+00 0.65192868043E+00 0.52372287831E+00 0.29785851714E+00
 0.33445010342E+00 0.47123842248E+00 0.75042799690E+00 0.11823068869E+01 0.17702467115E+01
 0.25595738184E+01 0.36402385263E+01 0.51405432337E+01 0.72550725772E+01 0.10251516089E+02
 0.14441390995E+02 0.20252801651E+02 0.28506707829E+02 0.40767304009E+02 0.59501213113E+02
 0.87717869614E+02 0.12981837068E+03 0.19223155406E+03 0.27507317500E+03 0.36862922797E+03
 0.45671217245E+03 0.52464202866E+03 0.56535615493E+03 0.57860252896E+03 0.56535615493E+03
 0.52464202866E+03 0.45671217245E+03 0.36862922797E+03 0.27507317500E+03 0.19223155406E+03
 0.12981837068E+03 0.87717869614E+02 0.59501213113E+02 0.40767304009E+02 0.28506707829E+02
 0.20252801651E+02 0.14441390995E+02 0.10251516089E+02 0.72550725772E+01 0.51405432337E+01
 0.36402385263E+01 0.25595738184E+01 0.17702467115E+01 0.11823068869E+01 0.75042799690E+00
 0.47123842248E+00 0.33445010342E+00 0.23844225874E+00 0.27570082380E+00 0.41514705366E+00
 0.69966302155E+00 0.11389685892E+01 0.17360502368E+01 0.25375994738E+01 0.36356378136E+01
 0.51599331146E+01 0.73069843561E+01 0.10348493382E+02 0.14603442638E+02 0.20515902148E+02
 0.28941996103E+02 0.41510825275E+02 0.60782445719E+02 0.89866665277E+02 0.13355972228E+03
 0.19845963013E+03 0.28427585990E+03 0.38048412332E+03 0.47012288606E+03 0.53832619041E+03
 0.57860252896E+03 0.59156617255E+03 0.57860252896E+03 0.53832619041E+03 0.47012288606E+03
 0.38048412332E+03 0.28427585990E+03 0.19845963013E+03 0.13355972228E+03 0.89866665277E+02
 0.60782445719E+02 0.41510825275E+02 0.28941996103E+02 0.20515902148E+02 0.14603442638E+02
 0.10348493382E+02 0.73069843561E+01 0.51599331146E+01 0.36356378136E+01 0.25375994738E+01
 0.17360502368E+01 0.11389685892E+01 0.69966302155E+00 0.41514705366E+00 0.27570082380E+00
 0.29785851714E+00 0.33445010342E+00 0.47123842248E+00 0.75042799690E+00 0.11823068869E+01
 0.17702467115E+01 0.25595738184E+01 0.36402385263E+01 0.51405432337E+01 0.72550725772E+01
 0.10251516089E+02 0.14441390995E+02 0.20252801651E+02 0.28506707829E+02 0.40767304009E+02
 0.59501213113E+02 0.87717869614E+02 0.12981837068E+03 0.19223155406E+03 0.27507317500E+03
 0.36862922797E+03 0.45671217245E+03 0.52464202866E+03 0.56535615493E+03 0.57860252896E+03
 0.56535615493E+03 0.52464202866E+03 0.45671217245E+03 0.36862922797E+03 0.27507317500E+03
 0.19223155406E+03 0.12981837068E+03 0.87717869614E+02 0.59501213113E+02 0.40767304009E+02
 0.28506707829E+02 0.20252801651E+02 0.14441390995E+02 0.10251516089E+02 0.72550725772E+01
 0.51405432337E+01 0.36402385263E+01 0.25595738184E+01 0.17702467115E+01 0.11823068869E+01
 0.75042799690E+00 0.47123842248E+00 0.33445010342E+00 0.48938367189E+00 0.52372287831E+00
 0.65192868043E+00 0.91436181511E+00 0.13230103174E+01 0.18824663322E+01 0.26343181151E+01
 0.36626282474E+01 0.50912927697E+01 0.71091351967E+01 0.99724176155E+01 0.13972133854E+02
 0.19492735840E+02 0.27258126978E+02 0.38651813431E+02 0.55876906147E+02 0.81673302855E+02
 0.11944103368E+03 0.17492744809E+03 0.24923376482E+03 0.33478576624E+03 0.41756417789E+03
 0.48361473541E+03 0.52464202866E+03 0.53832619041E+03 0.52464202866E+03 0.48361473541E+03
 0.41756417789E+03 0.33478576624E+03 0.24923376482E+03 0.17492744809E+03 0.11944103368E+03
 0.81673302855E+02 0.55876906147E+02 0.38651813431E+02 0.27258126978E+02 0.19492735840E+02
 0.13972133854E+02 0.99724176155E+01 0.71091351967E+01 0.50912927697E+01 0.36626282474E+01
 0.26343181151E+01 0.18824663322E+01 0.13230103174E+01 0.91436181511E+00 0.65192868043E+00
 0.52372287831E+00 0.85400685251E+00 0.88374621111E+00 0.99555862238E+00 0.12273239712E+01
 0.15938817003E+01 0.21021093180E+01 0.27885330542E+01 0.37285007805E+01 0.50386420231E+01
 0.68981649534E+01 0.95460143182E+01 0.13244324342E+02 0.18317185851E+02 0.25351781342E+02
 0.35472637835E+02 0.50496368087E+02 0.72751894529E+02 0.10460435403E+03 0.15024220328E+03
 0.21176033350E+03 0.28433113385E+03 0.35706007067E+03 0.41756417789E+03 0.45671217245E+03
 0.47012288606E+03 0.45671217245E+03 0.41756417789E+03 0.35706007067E+03 0.28433113385E+03
 0.21176033350E+03 0.15024220328E+03 0.10460435403E+03 0.72751894529E+02 0.50496368087E+02
 0.35472637835E+02 0.25351781342E+02 0.18317185851E+02 0.13244324342E+02 0.95460143182E+01
 0.68981649534E+01 0.50386420231E+01 0.37285007805E+01 0.27885330542E+01 0.21021093180E+01
 0.15938817003E+01 0.12273239712E+01 0.99555862238E+00 0.88374621111E+00 0.14653275102E+01
 0.14867793325E+01 0.15709345951E+01 0.17533528391E+01 0.20530412024E+01 0.24807354170E+01
 0.30682601351E+01 0.38810913769E+01 0.50261794607E+01 0.66694173636E+01 0.90282963220E+01
 0.12333153809E+02 0.16844337431E+02 0.23000932745E+02 0.31639390962E+02 0.44133681739E+02
 0.62302641490E+02 0.87884519608E+02 0.12292141337E+03 0.16972123128E+03 0.22600594825E+03
 0.28433113385E+03 0.33478576624E+03 0.36862922797E+03 0.38048412332E+03 0.36862922797E+03
 0.33478576624E+03 0.28433113385E+03 0.22600594825E+03 0.16972123128E+03 0.12292141337E+03
 0.87884519608E+02 0.62302641490E+02 0.44133681739E+02 0.31639390962E+02 0.23000932745E+02
 0.16844337431E+02 0.12333153809E+02 0.90282963220E+01 0.66694173636E+01 0.50261794607E+01
 0.38810913769E+01 0.30682601351E+01 0.24807354170E+01 0.20530412024E+01 0.17533528391E+01
 0.15709345951E+01 0.14867793325E+01 0.24416827484E+01 0.24490350271E+01 0.24885390703E+01
 0.25946153527E+01 0.27922800810E+01 0.30986876833E+01 0.35435974094E+01 0.41838131277E+01
 0.51153313414E+01 0.64876072270E+01 0.84939534266E+01 0.11333830629E+02 0.15211234293E+02
 0.20431212734E+02 0.27559874617E+02 0.37541804794E+02 0.51665459791E+02 0.71246640530E+02
 0.97040683927E+02 0.13004135533E+03 0.16972123128E+03 0.21176033350E+03 0.24923376482E+03
 0.27507317500E+03 0.28427585990E+03 0.27507317500E+03 0.24923376482E+03 0.21176033350E+03
 0.16972123128E+03 0.13004135533E+03 0.97040683927E+02 0.71246640530E+02 0.51665459791E+02
 0.37541804794E+02 0.27559874617E+02 0.20431212734E+02 0.15211234293E+02 0.11333830629E+02
 0.84939534266E+01 0.64876072270E+01 0.51153313414E+01 0.41838131277E+01 0.35435974094E+01
 0.30986876833E+01 0.27922800810E+01 0.25946153527E+01 0.24885390703E+01 0.24490350271E+01
 0.39687420576E+01 0.39529107713E+01 0.39215977186E+01 0.39104967075E+01 0.39535951296E+01
 0.40787304519E+01 0.43191170843E+01 0.47271621869E+01 0.53887485312E+01 0.64351021414E+01
 0.80336418699E+01 0.10355115249E+02 0.13559520693E+02 0.17847719557E+02 0.23566255207E+02
 0.31297413459E+02 0.41856817285E+02 0.56118713220E+02 0.74605814569E+02 0.97040683927E+02
 0.12292141337E+03 0.15024220328E+03 0.17492744809E+03 0.19223155406E+03 0.19845963013E+03
 0.19223155406E+03 0.17492744809E+03 0.15024220328E+03 0.12292141337E+03 0.97040683927E+02
 0.74605814569E+02 0.56118713220E+02 0.41856817285E+02 0.31297413459E+02 0.23566255207E+02
 0.17847719557E+02 0.13559520693E+02 0.10355115249E+02 0.80336418699E+01 0.64351021414E+01
 0.53887485312E+01 0.47271621869E+01 0.43191170843E+01 0.40787304519E+01 0.39535951296E+01
 0.39104967075E+01 0.39215977186E+01 0.39529107713E+01 0.63318904439E+01 0.62789342646E+01
 0.61366712436E+01 0.59459173125E+01 0.57544483083E+01 0.56076175830E+01 0.55511515562E+01
 0.56412001262E+01 0.59576818590E+01 0.66142123801E+01 0.77516723568E+01 0.95133814797E+01
 0.12026421052E+02 0.15420725949E+02 0.19887605919E+02 0.25741294073E+02 0.33430961975E+02
 0.43451403984E+02 0.56118713220E+02 0.71246640530E+02 0.87884519608E+02 0.10460435403E+03
 0.11944103368E+03 0.12981837068E+03 0.13355972228E+03 0.12981837068E+03 0.11944103368E+03
 0.10460435403E+03 0.87884519608E+02 0.71246640530E+02 0.56118713220E+02 0.43451403984E+02
 0.33430961975E+02 0.25741294073E+02 0.19887605919E+02 0.15420725949E+02 0.12026421052E+02
 0.95133814797E+01 0.77516723568E+01 0.66142123801E+01 0.59576818590E+01 0.56412001262E+01
 0.55511515562E+01 0.56076175830E+01 0.57544483083E+01 0.59459173125E+01 0.61366712436E+01
 0.62789342646E+01 0.99496396066E+01 0.98388825599E+01 0.95258938431E+01 0.90620799324E+01
 0.85163510432E+01 0.79617341891E+01 0.74696041951E+01 0.71126227269E+01 0.69734983397E+01
 0.71525991600E+01 0.77654384800E+01 0.89277277120E+01 0.10739372755E+02 0.13285408997E+02
 0.16661072161E+02 0.21006921791E+02 0.26523384360E+02 0.33430961975E+02 0.41856817285E+02
 0.51665459791E+02 0.62302641490E+02 0.72751894529E+02 0.81673302855E+02 0.87717869614E+02
 0.89866665277E+02 0.87717869614E+02 0.81673302855E+02 0.72751894529E+02 0.62302641490E+02
 0.51665459791E+02 0.41856817285E+02 0.33430961975E+02 0.26523384360E+02 0.21006921791E+02
 0.16661072161E+02 0.13285408997E+02 0.10739372755E+02 0.89277277120E+01 0.77654384800E+01
 0.71525991600E+01 0.69734983397E+01 0.71126227269E+01 0.74696041951E+01 0.79617341891E+01
 0.85163510432E+01 0.90620799324E+01 0.95258938431E+01 0.98388825599E+01 0.15387941016E+02
 0.15190394939E+02 0.14622466573E+02 0.13753261009E+02 0.12682951204E+02 0.11525910772E+02
 0.10396401703E+02 0.94013852796E+01 0.86408496560E+01 0.82114974023E+01 0.82078408004E+01
 0.87174315279E+01 0.98127795262E+01 0.11547271747E+02 0.13961348601E+02 0.17096921824E+02
 0.21006921791E+02 0.25741294073E+02 0.31297413459E+02 0.37541804794E+02 0.44133681739E+02
 0.50496368087E+02 0.55876906147E+02 0.59501213113E+02 0.60782445719E+02 0.59501213113E+02
 0.55876906147E+02 0.50496368087E+02 0.44133681739E+02 0.37541804794E+02 0.31297413459E+02
 0.25741294073E+02 0.21006921791E+02 0.17096921824E+02 0.13961348601E+02 0.11547271747E+02
 0.98127795262E+01 0.87174315279E+01 0.82078408004E+01 0.82114974023E+01 0.86408496560E+01