   5   5   0   0
  0.1473309E+02  0.4192000E-09  0.4192000E-09  0.4192000E-09  0.5000000E-15
  1.000000000000000E-004
  CAR 
 unknown system                          
     28.47082033    -50.00120087  301      5.34189200      1.00000000
    -50.001  0.0000E+00  0.0000E+00
    -49.740  0.0000E+00  0.0000E+00
    -49.478  0.0000E+00  0.0000E+00
    -49.216  0.0000E+00  0.0000E+00
    -48.955  0.0000E+00  0.0000E+00
    -48.693  0.0000E+00  0.0000E+00
    -48.432  0.0000E+00  0.0000E+00
    -48.170 -0.3593E-31 -0.9398E-32
    -47.909 -0.3995E-22 -0.1045E-22
    -47.647 -0.1406E-14 -0.3678E-15
    -47.385 -0.1475E-08 -0.3858E-09
    -47.124 -0.4693E-04 -0.1228E-04
    -46.862 -0.3783E-01 -0.9906E-02
    -46.601  0.5430E-01  0.4298E-02
    -46.339  0.6532E+01  0.1713E+01
    -46.078  0.1213E+01  0.2030E+01
    -45.816 -0.1148E+00  0.2000E+01
    -45.554 -0.4246E-03  0.2000E+01
    -45.293 -0.3547E-07  0.2000E+01
    -45.031 -0.8489E-13  0.2000E+01
    -44.770  0.0000E+00  0.2000E+01
    -44.508  0.0000E+00  0.2000E+01
    -44.247  0.0000E+00  0.2000E+01
    -43.985  0.0000E+00  0.2000E+01
    -43.723  0.0000E+00  0.2000E+01
    -43.462  0.0000E+00  0.2000E+01
    -43.200  0.0000E+00  0.2000E+01
    -42.939  0.0000E+00  0.2000E+01
    -42.677  0.0000E+00  0.2000E+01
    -42.416  0.0000E+00  0.2000E+01
    -42.154  0.0000E+00  0.2000E+01
    -41.892  0.0000E+00  0.2000E+01
    -41.631  0.0000E+00  0.2000E+01
    -41.369  0.0000E+00  0.2000E+01
    -41.108  0.0000E+00  0.2000E+01
    -40.846  0.0000E+00  0.2000E+01
    -40.585  0.0000E+00  0.2000E+01
    -40.323  0.0000E+00  0.2000E+01
    -40.061  0.0000E+00  0.2000E+01
    -39.800  0.0000E+00  0.2000E+01
    -39.538  0.0000E+00  0.2000E+01
    -39.277  0.0000E+00  0.2000E+01
    -39.015  0.0000E+00  0.2000E+01
    -38.754  0.0000E+00  0.2000E+01
    -38.492  0.0000E+00  0.2000E+01
    -38.230  0.0000E+00  0.2000E+01
    -37.969  0.0000E+00  0.2000E+01
    -37.707  0.0000E+00  0.2000E+01
    -37.446  0.0000E+00  0.2000E+01
    -37.184  0.0000E+00  0.2000E+01
    -36.923  0.0000E+00  0.2000E+01
    -36.661  0.0000E+00  0.2000E+01
    -36.399  0.0000E+00  0.2000E+01
    -36.138  0.0000E+00  0.2000E+01
    -35.876  0.0000E+00  0.2000E+01
    -35.615  0.0000E+00  0.2000E+01
    -35.353  0.0000E+00  0.2000E+01
    -35.092  0.0000E+00  0.2000E+01
    -34.830  0.0000E+00  0.2000E+01
    -34.568  0.0000E+00  0.2000E+01
    -34.307  0.0000E+00  0.2000E+01
    -34.045  0.0000E+00  0.2000E+01
    -33.784  0.0000E+00  0.2000E+01
    -33.522  0.0000E+00  0.2000E+01
    -33.261  0.0000E+00  0.2000E+01
    -32.999  0.0000E+00  0.2000E+01
    -32.737  0.0000E+00  0.2000E+01
    -32.476  0.0000E+00  0.2000E+01
    -32.214  0.0000E+00  0.2000E+01
    -31.953  0.0000E+00  0.2000E+01
    -31.691  0.0000E+00  0.2000E+01
    -31.429  0.0000E+00  0.2000E+01
    -31.168  0.0000E+00  0.2000E+01
    -30.906  0.0000E+00  0.2000E+01
    -30.645  0.0000E+00  0.2000E+01
    -30.383  0.0000E+00  0.2000E+01
    -30.122  0.0000E+00  0.2000E+01
    -29.860  0.0000E+00  0.2000E+01
    -29.598  0.0000E+00  0.2000E+01
    -29.337  0.0000E+00  0.2000E+01
    -29.075  0.0000E+00  0.2000E+01
    -28.814  0.0000E+00  0.2000E+01
    -28.552  0.0000E+00  0.2000E+01
    -28.291  0.0000E+00  0.2000E+01
    -28.029  0.0000E+00  0.2000E+01
    -27.767  0.0000E+00  0.2000E+01
    -27.506  0.0000E+00  0.2000E+01
    -27.244  0.0000E+00  0.2000E+01
    -26.983  0.0000E+00  0.2000E+01
    -26.721  0.0000E+00  0.2000E+01
    -26.460  0.0000E+00  0.2000E+01
    -26.198  0.0000E+00  0.2000E+01
    -25.936 -0.1977E-28  0.2000E+01
    -25.675 -0.9762E-20  0.2000E+01
    -25.413 -0.1471E-12  0.2000E+01
    -25.152 -0.6987E-07  0.2000E+01
    -24.890 -0.9571E-03  0.2000E+01
    -24.629 -0.3022E+00  0.1921E+01
    -24.367  0.2981E+01  0.2700E+01
    -24.105  0.1993E+02  0.7914E+01
    -23.844  0.4639E+00  0.8035E+01
    -23.582 -0.1349E+00  0.8000E+01
    -23.321 -0.1936E-03  0.8000E+01
    -23.059 -0.6952E-08  0.8000E+01
    -22.798 -0.5093E-14  0.8000E+01
    -22.536 -0.1186E-13  0.8000E+01
    -22.274 -0.7863E-08  0.8000E+01
    -22.013 -0.1513E-03  0.8000E+01
    -21.751 -0.7011E-01  0.7982E+01
    -21.490  0.5253E+00  0.8119E+01
    -21.228  0.6770E+01  0.9890E+01
    -20.967  0.4885E+00  0.1002E+02
    -20.705 -0.6766E-01  0.1000E+02
    -20.443 -0.1410E-03  0.1000E+02
    -20.182 -0.7104E-08  0.1000E+02
    -19.920 -0.1019E-13  0.1000E+02
    -19.659  0.0000E+00  0.1000E+02
    -19.397  0.0000E+00  0.1000E+02
    -19.136  0.0000E+00  0.1000E+02
    -18.874  0.0000E+00  0.1000E+02
    -18.612  0.0000E+00  0.1000E+02
    -18.351  0.0000E+00  0.1000E+02
    -18.089  0.0000E+00  0.1000E+02
    -17.828  0.0000E+00  0.1000E+02
    -17.566  0.0000E+00  0.1000E+02
    -17.305  0.0000E+00  0.1000E+02
    -17.043  0.0000E+00  0.1000E+02
    -16.781  0.0000E+00  0.1000E+02
    -16.520  0.0000E+00  0.1000E+02
    -16.258  0.0000E+00  0.1000E+02
    -15.997  0.0000E+00  0.1000E+02
    -15.735  0.0000E+00  0.1000E+02
    -15.474  0.0000E+00  0.1000E+02
    -15.212  0.0000E+00  0.1000E+02
    -14.950  0.0000E+00  0.1000E+02
    -14.689  0.0000E+00  0.1000E+02
    -14.427  0.0000E+00  0.1000E+02
    -14.166  0.0000E+00  0.1000E+02
    -13.904  0.0000E+00  0.1000E+02
    -13.642  0.0000E+00  0.1000E+02
    -13.381  0.0000E+00  0.1000E+02
    -13.119  0.0000E+00  0.1000E+02
    -12.858 -0.1495E-35  0.1000E+02
    -12.596 -0.7389E-26  0.1000E+02
    -12.335 -0.1161E-17  0.1000E+02
    -12.073 -0.5534E-11  0.1000E+02
    -11.811 -0.8165E-06  0.1000E+02
    -11.550 -0.3351E-02  0.9999E+01
    -11.288 -0.2406E+00  0.9936E+01
    -11.027  0.3284E+01  0.1080E+02
    -10.765  0.6612E+01  0.1252E+02
    -10.504  0.1305E+02  0.1594E+02
    -10.242  0.3297E+00  0.1602E+02
     -9.980 -0.9190E-01  0.1600E+02
     -9.719 -0.1344E-03  0.1600E+02
     -9.457 -0.4911E-08  0.1600E+02
     -9.196 -0.6791E-14  0.1600E+02
     -8.934  0.0000E+00  0.1600E+02
     -8.673  0.0000E+00  0.1600E+02
     -8.411  0.0000E+00  0.1600E+02
     -8.149 -0.3610E-28  0.1600E+02
     -7.888 -0.1620E-19  0.1600E+02
     -7.626 -0.2230E-12  0.1600E+02
     -7.365 -0.9552E-07  0.1600E+02
     -7.103 -0.1184E-02  0.1600E+02
     -6.842 -0.3333E+00  0.1591E+02
     -6.580  0.3464E+01  0.1682E+02
     -6.318  0.1969E+02  0.2197E+02
     -6.057  0.2357E+00  0.2203E+02
     -5.795 -0.1187E+00  0.2200E+02
     -5.534 -0.1529E-03  0.2200E+02
     -5.272 -0.4974E-08  0.2200E+02
     -5.011 -0.5093E-14  0.2200E+02
     -4.749  0.0000E+00  0.2200E+02
     -4.487  0.0000E+00  0.2200E+02
     -4.226  0.0000E+00  0.2200E+02
     -3.964  0.0000E+00  0.2200E+02
     -3.703  0.0000E+00  0.2200E+02
     -3.441  0.0000E+00  0.2200E+02
     -3.180  0.0000E+00  0.2200E+02
     -2.918  0.0000E+00  0.2200E+02
     -2.656  0.0000E+00  0.2200E+02
     -2.395  0.0000E+00  0.2200E+02
     -2.133  0.0000E+00  0.2200E+02
     -1.872  0.0000E+00  0.2200E+02
     -1.610  0.0000E+00  0.2200E+02
     -1.349  0.0000E+00  0.2200E+02
     -1.087  0.0000E+00  0.2200E+02
     -0.825  0.0000E+00  0.2200E+02
     -0.564  0.0000E+00  0.2200E+02
     -0.302  0.0000E+00  0.2200E+02
     -0.041  0.0000E+00  0.2200E+02
      0.221  0.0000E+00  0.2200E+02
      0.482  0.0000E+00  0.2200E+02
      0.744  0.0000E+00  0.2200E+02
      1.006  0.0000E+00  0.2200E+02
      1.267  0.0000E+00  0.2200E+02
      1.529  0.0000E+00  0.2200E+02
      1.790 -0.2234E-29  0.2200E+02
      2.052 -0.1555E-20  0.2200E+02
      2.313 -0.3293E-13  0.2200E+02
      2.575 -0.2228E-07  0.2200E+02
      2.837 -0.4363E-03  0.2200E+02
      3.098 -0.2062E+00  0.2195E+02
      3.360  0.1513E+01  0.2234E+02
      3.621  0.2031E+02  0.2765E+02
      3.883  0.1520E+01  0.2805E+02
      4.144 -0.8730E+00  0.2782E+02
      4.406  0.9208E+01  0.3023E+02
      4.668  0.1517E+02  0.3420E+02
      4.929 -0.1548E+01  0.3380E+02
      5.191  0.1400E+02  0.3746E+02
      5.452  0.1601E+02  0.4165E+02
      5.714  0.1719E+02  0.4615E+02
      5.976 -0.4917E+00  0.4602E+02
      6.237 -0.6299E-01  0.4600E+02
      6.499 -0.4954E-04  0.4600E+02
      6.760 -0.1020E-08  0.4600E+02
      7.022  0.0000E+00  0.4600E+02
      7.283 -0.3088E-28  0.4600E+02
      7.545 -0.1332E-19  0.4600E+02
      7.807 -0.1761E-12  0.4600E+02
      8.068 -0.7244E-07  0.4600E+02
      8.330 -0.8614E-03  0.4600E+02
      8.591 -0.2312E+00  0.4594E+02
      8.853  0.2422E+01  0.4657E+02
      9.114  0.1258E+02  0.4986E+02
      9.376  0.1096E+02  0.5273E+02
      9.638  0.5255E+01  0.5411E+02
      9.899 -0.4126E+00  0.5400E+02
     10.161 -0.2618E+00  0.5393E+02
     10.422  0.4948E+01  0.5522E+02
     10.684  0.3197E+01  0.5606E+02
     10.945 -0.2279E+00  0.5600E+02
     11.207 -0.2704E-02  0.5600E+02
     11.469 -0.2263E-03  0.5600E+02
     11.730 -0.1464E+00  0.5596E+02
     11.992  0.6300E+00  0.5613E+02
     12.253  0.2006E+02  0.6137E+02
     12.515  0.2680E+01  0.6207E+02
     12.776 -0.2828E+00  0.6200E+02
     13.038 -0.8307E-03  0.6200E+02
     13.300 -0.5678E-07  0.6200E+02
     13.561 -0.1121E-12  0.6200E+02
     13.823  0.0000E+00  0.6200E+02
     14.084  0.0000E+00  0.6200E+02
     14.346  0.0000E+00  0.6200E+02
     14.607  0.0000E+00  0.6200E+02
     14.869  0.0000E+00  0.6200E+02
     15.131  0.0000E+00  0.6200E+02
     15.392  0.0000E+00  0.6200E+02
     15.654  0.0000E+00  0.6200E+02
     15.915  0.0000E+00  0.6200E+02
     16.177  0.0000E+00  0.6200E+02
     16.438  0.0000E+00  0.6200E+02
     16.700  0.0000E+00  0.6200E+02
     16.962  0.0000E+00  0.6200E+02
     17.223 -0.9556E-32  0.6200E+02
     17.485 -0.1300E-22  0.6200E+02
     17.746 -0.5600E-15  0.6200E+02
     18.008 -0.7210E-09  0.6200E+02
     18.269 -0.2825E-04  0.6200E+02
     18.531 -0.2853E-01  0.6199E+02
     18.793 -0.6994E-01  0.6197E+02
     19.054  0.6290E+01  0.6362E+02
     19.316  0.1593E+01  0.6404E+02
     19.577 -0.3980E+00  0.6393E+02
     19.839  0.2318E+01  0.6454E+02
     20.100  0.2018E+02  0.6982E+02
     20.362  0.8594E+00  0.7004E+02
     20.624 -0.1622E+00  0.7000E+02
     20.885 -0.1037E-01  0.7000E+02
     21.147 -0.2561E+00  0.6993E+02
     21.408  0.5019E+01  0.7124E+02
     21.670  0.3120E+01  0.7206E+02
     21.931 -0.2244E+00  0.7200E+02
     22.193 -0.2550E-02  0.7200E+02
     22.455 -0.5329E-06  0.7200E+02
     22.716 -0.1083E-08  0.7200E+02
     22.978 -0.5162E-04  0.7200E+02
     23.239 -0.6450E-01  0.7198E+02
     23.501 -0.4659E+00  0.7186E+02
     23.762  0.1797E+02  0.7656E+02
     24.024  0.5989E+01  0.7813E+02
     24.286 -0.4906E+00  0.7800E+02
     24.547 -0.1178E+00  0.7797E+02
     24.809  0.1213E+01  0.7829E+02
     25.070  0.6532E+01  0.8000E+02
     25.332  0.5430E-01  0.8001E+02
     25.594 -0.3783E-01  0.8000E+02
     25.855 -0.4693E-04  0.8000E+02
     26.117 -0.1475E-08  0.8000E+02
     26.378 -0.1698E-14  0.8000E+02
     26.640  0.0000E+00  0.8000E+02
     26.901  0.0000E+00  0.8000E+02
     27.163  0.0000E+00  0.8000E+02
     27.425  0.0000E+00  0.8000E+02
     27.686  0.0000E+00  0.8000E+02
     27.948  0.0000E+00  0.8000E+02
     28.209  0.0000E+00  0.8000E+02
     28.471  0.0000E+00  0.8000E+02
