    5    5    1    1
  0.1473309E+02  0.4192000E-09  0.4192000E-09  0.4192000E-09  0.5000000E-15
  1.000000000000000E-004
  CAR 
 unknown system                          
     40      1     40
 
  0.0000000E+00  0.0000000E+00  0.0000000E+00  0.1000000E+01
      1        -46.434291   1.000000
      2        -24.262103   1.000000
      3        -24.262103   1.000000
      4        -24.262103   1.000000
      5        -21.360052   1.000000
      6        -11.008625   1.000000
      7        -10.659025   1.000000
      8        -10.659025   1.000000
      9         -6.482373   1.000000
     10         -6.482373   1.000000
     11         -6.482373   1.000000
     12          3.490704   1.000000
     13          3.490704   1.000000
     14          3.490704   1.000000
     15          4.436689   1.000000
     16          4.436689   1.000000
     17          4.436689   1.000000
     18          5.167385   1.006348
     19          5.167385   1.006348
     20          5.167385   1.006348
     21          5.516399  -0.006348
     22          5.516399  -0.006348
     23          5.516399  -0.006348
     24          8.947443  -0.000000
     25          8.947443  -0.000000
     26          9.332794  -0.000000
     27          9.332794  -0.000000
     28         10.395515   0.000000
     29         12.143583   0.000000
     30         12.143583   0.000000
     31         12.143583   0.000000
     32         18.974353   0.000000
     33         19.954655   0.000000
     34         19.954655   0.000000
     35         19.954655   0.000000
     36         21.379264   0.000000
     37         23.697267   0.000000
     38         23.697267   0.000000
     39         23.697267   0.000000
     40         24.903910   0.000000
