 running   40 mpi-ranks, on    1 nodes
 distrk:  each k-point on   40 cores,    1 groups
 distr:  one band on    1 cores,   40 groups
 vasp.6.4.3 19Mar24 (build Jul 09 2024 15:45:28) complex                        
  
 POSCAR found type information on POSCAR BaZrO 
 POSCAR found :  3 types and       5 ions
 scaLAPACK will be used
 -----------------------------------------------------------------------------
|                                                                             |
|           W    W    AA    RRRRR   N    N  II  N    N   GGGG   !!!           |
|           W    W   A  A   R    R  NN   N  II  NN   N  G    G  !!!           |
|           W    W  A    A  R    R  N N  N  II  N N  N  G       !!!           |
|           W WW W  AAAAAA  RRRRR   N  N N  II  N  N N  G  GGG   !            |
|           WW  WW  A    A  R   R   N   NN  II  N   NN  G    G                |
|           W    W  A    A  R    R  N    N  II  N    N   GGGG   !!!           |
|                                                                             |
|     For optimal performance we recommend to set                             |
|       NCORE = 2 up to number-of-cores-per-socket                            |
|     NCORE specifies how many cores store one orbital (NPAR=cpu/NCORE).      |
|     This setting can greatly improve the performance of VASP for DFT.       |
|     The default, NCORE=1 might be grossly inefficient on modern             |
|     multi-core architectures or massively parallel machines. Do your        |
|     own testing! More info at https://www.vasp.at/wiki/index.php/NCORE      |
|     Unfortunately you need to use the default for GW and RPA                |
|     calculations (for HF NCORE is supported but not extensively tested      |
|     yet).                                                                   |
|                                                                             |
 -----------------------------------------------------------------------------

 LDA part: xc-table for (Slater+PW92), standard interpolation
 POSCAR found type information on POSCAR BaZrO 
 POSCAR found :  3 types and       5 ions
 POSCAR, INCAR and KPOINTS ok, starting setup
 FFT: planning ... GRIDC
 FFT: planning ... GRID_SOFT
 FFT: planning ... GRID
 WAVECAR not read
 entering main loop
       N       E                     dE             d eps       ncg     rms          rms(c)
DAV:   1     0.116030293564E+03    0.11603E+03   -0.22387E+04    80   0.809E+02
DAV:   2    -0.390093058191E+02   -0.15504E+03   -0.15506E+03   120   0.163E+02
DAV:   3    -0.398670838467E+02   -0.85778E+00   -0.85769E+00    80   0.152E+01
DAV:   4    -0.398735336582E+02   -0.64498E-02   -0.64498E-02   120   0.799E-01
DAV:   5    -0.398735392181E+02   -0.55599E-05   -0.55600E-05   120   0.215E-02    0.227E+01
DAV:   6    -0.254268654085E+02    0.14447E+02   -0.67740E+01    80   0.292E+01    0.948E+00
DAV:   7    -0.247364820962E+02    0.69038E+00   -0.89532E-01   120   0.467E+00    0.584E+00
DAV:   8    -0.244786063299E+02    0.25788E+00   -0.81758E-01   120   0.504E+00    0.107E+00
DAV:   9    -0.245428581280E+02   -0.64252E-01   -0.78507E-02   120   0.102E+00    0.440E+00
DAV:  10    -0.245098021761E+02    0.33056E-01   -0.18465E-01    80   0.161E+00    0.684E-01
DAV:  11    -0.244942232752E+02    0.15579E-01   -0.17450E-02   120   0.600E-01    0.983E-01
DAV:  12    -0.244916723314E+02    0.25509E-02   -0.81649E-04   120   0.129E-01    0.893E-01
DAV:  13    -0.244838849972E+02    0.77873E-02   -0.24647E-03   120   0.215E-01    0.589E-01
DAV:  14    -0.244825560547E+02    0.13289E-02   -0.17613E-04    80   0.570E-02    0.481E-01
DAV:  15    -0.244803058091E+02    0.22502E-02   -0.14372E-03    80   0.156E-01    0.454E-02
DAV:  16    -0.244803431025E+02   -0.37293E-04   -0.54772E-05    80   0.367E-02
   1 F= -.24480343E+02 E0= -.24507887E+02  d E =0.826306E-01
 writing wavefunctions
