<?xml version="1.0" encoding="ISO-8859-1"?>
<modeling>
 <generator>
  <i name="program" type="string">vasp </i>
  <i name="version" type="string">6.4.3  </i>
  <i name="subversion" type="string">19Mar24 (build Jul 09 2024 15:45:28) complex                          parallel </i>
  <i name="platform" type="string">LinuxIFC </i>
  <i name="date" type="string">2024 10 30 </i>
  <i name="time" type="string">14:49:26 </i>
 </generator>
 <incar>
  <i type="string" name="PREC">normal</i>
  <i type="int" name="IBRION">    -1</i>
  <i type="int" name="NSW">     0</i>
  <i type="string" name="GGA">PE</i>
 </incar>
 <primitive_cell>
  <structure name="primitive_cell" >
   <crystal>
    <varray name="basis" >
     <v>       4.19200000       0.00000000       0.00000000 </v>
     <v>       0.00000000       4.19200000       0.00000000 </v>
     <v>       0.00000000       0.00000000       4.19200000 </v>
    </varray>
    <i name="volume">     73.66544589 </i>
    <varray name="rec_basis" >
     <v>       0.23854962       0.00000000       0.00000000 </v>
     <v>       0.00000000       0.23854962       0.00000000 </v>
     <v>       0.00000000       0.00000000       0.23854962 </v>
    </varray>
   </crystal>
   <varray name="positions" >
    <v>       0.00000000       0.00000000       0.00000000 </v>
    <v>       0.50000000       0.50000000       0.50000000 </v>
    <v>       0.50000000       0.50000000       0.00000000 </v>
    <v>       0.50000000       0.00000000       0.50000000 </v>
    <v>       0.00000000       0.50000000       0.50000000 </v>
   </varray>
  </structure>
  <varray name="primitive_index" >
   <v type="int" >        1 </v>
   <v type="int" >        2 </v>
   <v type="int" >        3 </v>
   <v type="int" >        4 </v>
   <v type="int" >        5 </v>
  </varray>
 </primitive_cell>
 <kpoints>
  <generation param="Monkhorst-Pack">
   <v type="int" name="divisions">       1        1        1 </v>
   <v name="usershift">      0.00000000       0.00000000       0.00000000 </v>
   <v name="genvec1">      1.00000000       0.00000000       0.00000000 </v>
   <v name="genvec2">      0.00000000       1.00000000       0.00000000 </v>
   <v name="genvec3">      0.00000000       0.00000000       1.00000000 </v>
   <v name="shift">      0.00000000       0.00000000       0.00000000 </v>
  </generation>
  <varray name="kpointlist" >
   <v>       0.00000000       0.00000000       0.00000000 </v>
  </varray>
  <varray name="weights" >
   <v>       1.00000000 </v>
  </varray>
 </kpoints>
 <parameters>
  <separator name="general" >
   <i type="string" name="SYSTEM">unknown system</i>
   <i type="logical" name="LCOMPAT"> F  </i>
  </separator>
  <separator name="electronic" >
   <i type="string" name="PREC">normal</i>
   <i name="ENMAX">    400.00000000</i>
   <i name="ENAUG">    605.39200000</i>
   <i name="EDIFF">      0.00010000</i>
   <i type="int" name="IALGO">    38</i>
   <i type="int" name="IWAVPR">    10</i>
   <i type="int" name="NBANDS">    40</i>
   <i type="int" name="NBANDSLOW">    -1</i>
   <i type="int" name="NBANDSHIGH">    -1</i>
   <i name="NELECT">     40.00000000</i>
   <i type="int" name="TURBO">     0</i>
   <i type="int" name="IRESTART">     0</i>
   <i type="int" name="NREBOOT">     0</i>
   <i type="int" name="NMIN">     0</i>
   <i name="EREF">      0.00000000</i>
   <separator name="electronic smearing" >
    <i type="int" name="ISMEAR">     1</i>
    <i name="SIGMA">      0.20000000</i>
    <i name="KSPACING">      0.50000000</i>
    <i type="logical" name="KGAMMA"> T  </i>
    <i type="logical" name="KBLOWUP"> T  </i>
   </separator>
   <separator name="electronic projectors" >
    <i type="logical" name="LREAL"> F  </i>
    <v name="ROPT">      0.00000000      0.00000000      0.00000000</v>
    <i type="int" name="LMAXPAW">  -100</i>
    <i type="int" name="LMAXMIX">     2</i>
    <i type="logical" name="NLSPLINE"> F  </i>
   </separator>
   <separator name="electronic startup" >
    <i type="int" name="ISTART">     0</i>
    <i type="int" name="ICHARG">     2</i>
    <i type="int" name="INIWAV">     1</i>
   </separator>
   <separator name="electronic spin" >
    <i type="int" name="ISPIN">     1</i>
    <i type="logical" name="LNONCOLLINEAR"> F  </i>
    <v name="MAGMOM">      1.00000000      1.00000000      1.00000000      1.00000000      1.00000000</v>
    <i name="NUPDOWN">     -1.00000000</i>
    <i type="logical" name="LSORBIT"> F  </i>
    <v name="SAXIS">      0.00000000      0.00000000      1.00000000</v>
    <i type="logical" name="LSPIRAL"> F  </i>
    <v name="QSPIRAL">      0.00000000      0.00000000      0.00000000</v>
    <i type="logical" name="LZEROZ"> F  </i>
   </separator>
   <separator name="electronic exchange-correlation" >
    <i type="logical" name="LASPH"> F  </i>
   </separator>
   <separator name="electronic convergence" >
    <i type="int" name="NELM">    60</i>
    <i type="int" name="NELMDL">    -5</i>
    <i type="int" name="NELMIN">     2</i>
    <i name="ENINI">    400.00000000</i>
    <separator name="electronic convergence detail" >
     <i type="logical" name="LDIAG"> T  </i>
     <i type="logical" name="LSUBROT"> F  </i>
     <i name="WEIMIN">      0.00000000</i>
     <i name="EBREAK">      0.00000063</i>
     <i name="DEPER">      0.30000000</i>
     <i type="int" name="NRMM">     4</i>
     <i name="TIME">      0.40000000</i>
    </separator>
   </separator>
   <separator name="electronic mixer" >
    <i name="AMIX">      0.40000000</i>
    <i name="BMIX">      1.00000000</i>
    <i name="AMIN">      0.10000000</i>
    <i name="AMIX_MAG">      1.60000000</i>
    <i name="BMIX_MAG">      1.00000000</i>
    <separator name="electronic mixer details" >
     <i type="int" name="IMIX">     4</i>
     <i type="logical" name="MIXFIRST"> F  </i>
     <i type="int" name="MAXMIX">   -45</i>
     <i name="WC">    100.00000000</i>
     <i type="int" name="INIMIX">     1</i>
     <i type="int" name="MIXPRE">     1</i>
     <i type="int" name="MREMOVE">     5</i>
    </separator>
   </separator>
   <separator name="electronic dipolcorrection" >
    <i type="logical" name="LDIPOL"> F  </i>
    <i type="logical" name="LMONO"> F  </i>
    <i type="int" name="IDIPOL">     0</i>
    <i name="EPSILON">      1.00000000</i>
    <v name="DIPOL">   -100.00000000   -100.00000000   -100.00000000</v>
    <i name="EFIELD">      0.00000000</i>
    <i type="logical" name="LVACPOTAV"> F  </i>
   </separator>
  </separator>
  <separator name="grids" >
   <i type="int" name="NGX">    24</i>
   <i type="int" name="NGY">    24</i>
   <i type="int" name="NGZ">    24</i>
   <i type="int" name="NGXF">    48</i>
   <i type="int" name="NGYF">    48</i>
   <i type="int" name="NGZF">    48</i>
   <i type="logical" name="ADDGRID"> F  </i>
  </separator>
  <separator name="ionic" >
   <i type="int" name="NSW">     0</i>
   <i type="int" name="IBRION">    -1</i>
   <i type="int" name="MDALGO">     0</i>
   <i type="int" name="ISIF">     2</i>
   <i name="PSTRESS">      0.00000000</i>
   <i name="EDIFFG">      0.00100000</i>
   <i type="int" name="NFREE">     0</i>
   <i name="POTIM">      0.50000000</i>
   <i name="SMASS">     -3.00000000</i>
   <i name="SCALEE">      1.00000000</i>
  </separator>
  <separator name="ionic md" >
   <i name="TEBEG">      0.00010000</i>
   <i name="TEEND">      0.00010000</i>
   <i type="int" name="NBLOCK">     1</i>
   <i type="int" name="KBLOCK">     1</i>
   <i type="int" name="NPACO">   256</i>
   <i name="APACO">     10.00000000</i>
  </separator>
  <separator name="symmetry" >
   <i type="int" name="ISYM">     2</i>
   <i name="SYMPREC">      0.00001000</i>
  </separator>
  <separator name="dos" >
   <i type="int" name="LORBIT">     0</i>
   <v name="RWIGS">     -1.00000000     -1.00000000     -1.00000000</v>
   <i type="int" name="NEDOS">   301</i>
   <i name="EMIN">     10.00000000</i>
   <i name="EMAX">    -10.00000000</i>
   <i name="EFERMI">      0.00000000</i>
  </separator>
  <separator name="writing" >
   <i type="int" name="NWRITE">     2</i>
   <i type="logical" name="LWAVE"> T  </i>
   <i type="logical" name="LDOWNSAMPLE"> F  </i>
   <i type="logical" name="LCHARG"> T  </i>
   <i type="logical" name="LPARD"> F  </i>
   <i type="logical" name="LVTOT"> F  </i>
   <i type="logical" name="LVHAR"> F  </i>
   <i type="logical" name="LELF"> F  </i>
   <i type="logical" name="LOPTICS"> F  </i>
   <v name="STM">      0.00000000      0.00000000      0.00000000      0.00000000      0.00000000      0.00000000      0.00000000</v>
  </separator>
  <separator name="performance" >
   <i type="int" name="NPAR">    40</i>
   <i type="int" name="NSIM">     4</i>
   <i type="int" name="NBLK">    -1</i>
   <i type="logical" name="LPLANE"> T  </i>
   <i type="logical" name="LSCALAPACK"> T  </i>
   <i type="logical" name="LSCAAWARE"> T  </i>
   <i type="logical" name="LSCALU"> F  </i>
   <i type="logical" name="LASYNC"> F  </i>
   <i type="logical" name="LORBITALREAL"> F  </i>
  </separator>
  <separator name="miscellaneous" >
   <i type="int" name="IDIOT">     3</i>
   <i type="int" name="PHON_NSTRUCT">    -1</i>
   <i type="logical" name="LMUSIC"> F  </i>
   <v name="POMASS">    137.32700000     91.22400000     16.00000000</v>
   <v name="DARWINR">      0.00000000      0.00000000      0.00000000</v>
   <v name="DARWINV">      1.00000000      1.00000000      1.00000000</v>
   <i type="logical" name="LCORR"> T  </i>
  </separator>
  <i type="logical" name="GGA_COMPAT"> T  </i>
  <i type="logical" name="LBERRY"> F  </i>
  <i type="int" name="ICORELEVEL">     0</i>
  <i type="logical" name="LDAU"> F  </i>
  <i type="int" name="I_CONSTRAINED_M">     0</i>
  <separator name="electronic exchange-correlation" >
   <i type="string" name="GGA    ">PE</i>
   <i type="string" name="XC_C">1</i>
   <i type="int" name="VOSKOWN">     0</i>
   <i type="logical" name="LHFCALC"> F  </i>
   <i type="string" name="PRECFOCK"></i>
   <i type="logical" name="LSYMGRAD"> F  </i>
   <i type="logical" name="LHFONE"> F  </i>
   <i type="logical" name="LRHFCALC"> F  </i>
   <i type="logical" name="LTHOMAS"> F  </i>
   <i type="logical" name="LMODELHF"> F  </i>
   <i type="logical" name="LFOCKACE"> F  </i>
   <i name="ENCUT4O">     -1.00000000</i>
   <i type="int" name="EXXOEP">     0</i>
   <i type="int" name="FOURORBIT">     0</i>
   <i name="AEXX">      0.00000000</i>
   <i name="HFALPHA">      0.00000000</i>
   <i name="MCALPHA">      0.00000000</i>
   <i name="ALDAX">      1.00000000</i>
   <i name="AGGAX">      1.00000000</i>
   <i name="AMGGAX">      1.00000000</i>
   <i name="ALDAC">      1.00000000</i>
   <i name="AGGAC">      1.00000000</i>
   <i name="AMGGAC">      1.00000000</i>
   <i type="int" name="NKREDX">     1</i>
   <i type="int" name="NKREDY">     1</i>
   <i type="int" name="NKREDZ">     1</i>
   <i type="logical" name="SHIFTRED"> F  </i>
   <i type="logical" name="ODDONLY"> F  </i>
   <i type="logical" name="EVENONLY"> F  </i>
   <i type="int" name="LMAXFOCK">     0</i>
   <i type="int" name="NMAXFOCKAE">     0</i>
   <i type="logical" name="LFOCKAEDFT"> F  </i>
   <i name="HFSCREEN">      0.00000000</i>
   <i name="HFSCREENC">      0.00000000</i>
   <i type="int" name="NBANDSGWLOW">     0</i>
  </separator>
  <separator name="vdW DFT" >
   <i type="logical" name="LUSE_VDW"> F  </i>
   <i type="int" name="IVDW_NL">    -1</i>
   <i type="logical" name="LSPIN_VDW"> F  </i>
   <i name="ZAB_VDW">     -0.84910000</i>
   <i name="GAMMA_VDW">      1.39626340</i>
   <i name="ALPHA_VDW">      0.00000000</i>
   <i name="PARAM1">      0.12340000</i>
   <i name="PARAM2">      1.00000000</i>
   <i name="BPARAM">      6.30000000</i>
   <i name="CPARAM">      0.00930000</i>
  </separator>
  <separator name="model GW" >
   <i type="int" name="MODEL_GW">     0</i>
   <i name="MODEL_EPS0">      8.83985351</i>
   <i name="MODEL_ALPHA">      1.00000000</i>
  </separator>
  <separator name="linear response parameters" >
   <i type="logical" name="LEPSILON"> F  </i>
   <i type="logical" name="LRPA"> F  </i>
   <i type="logical" name="LNABLA"> F  </i>
   <i type="logical" name="LVEL"> F  </i>
   <i name="CSHIFT">      0.10000000</i>
   <i name="OMEGAMAX">     -1.00000000</i>
   <i name="DEG_THRESHOLD">      0.00200000</i>
   <i name="RTIME">     -0.10000000</i>
   <i name="WPLASMAI">      0.00000000</i>
   <v name="DFIELD">      0.00000000      0.00000000      0.00000000</v>
   <v name="WPLASMA">      0.00000000      0.00000000      0.00000000      0.00000000      0.00000000      0.00000000      0.00000000      0.00000000      0.00000000</v>
  </separator>
  <separator name="orbital magnetization" >
   <i type="logical" name="NUCIND"> F  </i>
   <v name="MAGPOS">      0.00000000      0.00000000      0.00000000</v>
   <i type="logical" name="LNICSALL"> T  </i>
   <i type="logical" name="ORBITALMAG"> F  </i>
   <i type="logical" name="LMAGBLOCH"> F  </i>
   <i type="logical" name="LCHIMAG"> F  </i>
   <i type="logical" name="LGAUGE"> T  </i>
   <i type="int" name="MAGATOM">     0</i>
   <v name="MAGDIPOL">      0.00000000      0.00000000      0.00000000</v>
   <v name="AVECCONST">      0.00000000      0.00000000      0.00000000</v>
  </separator>
  <separator name="response functions" >
   <i type="logical" name="LALL_IN_ONE"> F  </i>
   <i type="int" name="IALL_IN_ONE">    -1</i>
   <i type="int" name="NBANDS_WAVE">    -1</i>
   <i type="logical" name="LFINITE_TEMPERATURE"> F  </i>
   <i type="logical" name="LADDER"> F  </i>
   <i type="logical" name="LRPAFORCE"> F  </i>
   <i type="logical" name="LFXC"> F  </i>
   <i type="logical" name="LHARTREE"> T  </i>
   <i type="int" name="IBSE">     0</i>
   <v type="int" name="KPOINT">    -1     0     0     0</v>
   <i type="logical" name="LTCTC"> F  </i>
   <i type="logical" name="LTCTE"> F  </i>
   <i type="logical" name="LTETE"> F  </i>
   <i type="logical" name="LTRIPLET"> F  </i>
   <i type="logical" name="LFXCEPS"> F  </i>
   <i type="logical" name="LFXHEG"> F  </i>
   <i type="int" name="NATURALO">     2</i>
   <i type="logical" name="LHOLEGF"> F  </i>
   <i type="logical" name="L2ORDER"> F  </i>
   <i type="logical" name="LDMP1"> F  </i>
   <i type="logical" name="LMP2LT"> F  </i>
   <i type="logical" name="LSMP2LT"> F  </i>
   <i type="logical" name="LGWLF"> F  </i>
   <i name="ENCUTGW">     -1.60000002</i>
   <i name="ENCUTGWSOFT">     -1.60000002</i>
   <i name="ENCUTLF">     -1.00000000</i>
   <i type="logical" name="ESF_SPLINES"> F  </i>
   <i name="ESF_CONV">      0.01000000</i>
   <i type="int" name="ESF_NINTER">    15</i>
   <i type="int" name="LMAXMP2">    -1</i>
   <i name="SCISSOR">      0.00000000</i>
   <i type="int" name="NOMEGA">     0</i>
   <i type="int" name="NOMEGAR">     0</i>
   <i type="int" name="NBANDSGW">    -1</i>
   <i type="int" name="NBANDSO">    -1</i>
   <i type="int" name="NBANDSV">    -1</i>
   <i type="int" name="NELMGW">     1</i>
   <i type="int" name="NELMHF">     1</i>
   <i type="int" name="DIM">     3</i>
   <i type="int" name="IESPILON">     4</i>
   <i type="int" name="ANTIRES">     0</i>
   <i name="OMEGAMAX">    -30.00000000</i>
   <i name="OMEGAMIN">    -30.00000000</i>
   <i name="OMEGATL">   -200.00000000</i>
   <i type="int" name="OMEGAGRID">     0</i>
   <i name="CSHIFT">     -0.10000000</i>
   <i type="logical" name="LSELFENERGY"> F  </i>
   <i type="logical" name="LSPECTRAL"> F  </i>
   <i type="logical" name="LSPECTRALGW"> F  </i>
   <i type="logical" name="LSINGLES"> F  </i>
   <i type="logical" name="LFERMIGW"> F  </i>
   <i type="logical" name="ODDONLYGW"> F  </i>
   <i type="logical" name="EVENONLYGW"> F  </i>
   <i type="int" name="NKREDLFX">     1</i>
   <i type="int" name="NKREDLFY">     1</i>
   <i type="int" name="NKREDLFZ">     1</i>
   <i type="int" name="MAXMEM">  2800</i>
   <i type="int" name="TELESCOPE">     0</i>
   <i type="int" name="NTAUPAR">    -1</i>
   <i type="int" name="NOMEGAPAR">    -1</i>
   <i name="DAMP_NEWTON">      0.80000001</i>
   <i name="LAMBDA">      1.00000000</i>
  </separator>
  <separator name="External order field" >
   <i name="OFIELD_KAPPA">      0.00000000</i>
   <v name="OFIELD_K">      0.00000000      0.00000000      0.00000000</v>
   <i name="OFIELD_Q6_NEAR">      0.00000000</i>
   <i name="OFIELD_Q6_FAR">      0.00000000</i>
   <i name="OFIELD_A">      0.00000000</i>
  </separator>
  <separator name="optional k-points parameters" >
   <i type="int" name="KPOINTS_OPT_MODE">     1</i>
   <i type="logical" name="LKPOINTS_OPT"> F  </i>
  </separator>
 </parameters>
 <atominfo>
  <atoms>       5 </atoms>
  <types>       3 </types>
  <array name="atoms" >
   <dimension dim="1">ion</dimension>
   <field type="string">element</field>
   <field type="int">atomtype</field>
   <set>
    <rc><c>Ba</c><c>   1</c></rc>
    <rc><c>Zr</c><c>   2</c></rc>
    <rc><c>O </c><c>   3</c></rc>
    <rc><c>O </c><c>   3</c></rc>
    <rc><c>O </c><c>   3</c></rc>
   </set>
  </array>
  <array name="atomtypes" >
   <dimension dim="1">type</dimension>
   <field type="int">atomspertype</field>
   <field type="string">element</field>
   <field>mass</field>
   <field>valence</field>
   <field type="string">pseudopotential</field>
   <set>
    <rc><c>   1</c><c>Ba</c><c>    137.32700000</c><c>     10.00000000</c><c>  PAW_PBE Ba_sv 06Sep2000               </c></rc>
    <rc><c>   1</c><c>Zr</c><c>     91.22400000</c><c>     12.00000000</c><c>  PAW_PBE Zr_sv 04Jan2005               </c></rc>
    <rc><c>   3</c><c>O </c><c>     16.00000000</c><c>      6.00000000</c><c>  PAW_PBE O 08Apr2002                   </c></rc>
   </set>
  </array>
 </atominfo>
 <structure name="initialpos" >
  <crystal>
   <varray name="basis" >
    <v>       4.19200000       0.00000000       0.00000000 </v>
    <v>       0.00000000       4.19200000       0.00000000 </v>
    <v>       0.00000000       0.00000000       4.19200000 </v>
   </varray>
   <i name="volume">     73.66544589 </i>
   <varray name="rec_basis" >
    <v>       0.23854962       0.00000000       0.00000000 </v>
    <v>       0.00000000       0.23854962       0.00000000 </v>
    <v>       0.00000000       0.00000000       0.23854962 </v>
   </varray>
  </crystal>
  <varray name="positions" >
   <v>       0.00000000       0.00000000       0.00000000 </v>
   <v>       0.50000000       0.50000000       0.50000000 </v>
   <v>       0.50000000       0.50000000       0.00000000 </v>
   <v>       0.50000000       0.00000000       0.50000000 </v>
   <v>       0.00000000       0.50000000       0.50000000 </v>
  </varray>
 </structure>
 <calculation>
  <scstep>
   <time name="dav">    0.03    0.05</time>
   <time name="total">    0.04    0.07</time>
   <energy>
    <i name="alphaZ">    240.34259355 </i>
    <i name="ewald">  -2693.37944630 </i>
    <i name="hartreedc">   -682.79388567 </i>
    <i name="XCdc">    159.34886954 </i>
    <i name="pawpsdc">   2561.05225630 </i>
    <i name="pawaedc">  -2544.85325127 </i>
    <i name="eentropy">      0.01159581 </i>
    <i name="bandstr">   -205.55705298 </i>
    <i name="atom">   3281.85861458 </i>
    <i name="e_fr_energy">    116.03029356 </i>
    <i name="e_wo_entrp">    116.01869775 </i>
    <i name="e_0_energy">    116.02642829 </i>
   </energy>
  </scstep>
  <scstep>
   <time name="dav">    0.03    0.03</time>
   <time name="total">    0.03    0.03</time>
   <energy>
    <i name="e_fr_energy">    -39.00930582 </i>
    <i name="e_wo_entrp">    -39.04418001 </i>
    <i name="e_0_energy">    -39.02093055 </i>
   </energy>
  </scstep>
  <scstep>
   <time name="dav">    0.01    0.02</time>
   <time name="total">    0.01    0.02</time>
   <energy>
    <i name="e_fr_energy">    -39.86708385 </i>
    <i name="e_wo_entrp">    -39.90187252 </i>
    <i name="e_0_energy">    -39.87868007 </i>
   </energy>
  </scstep>
  <scstep>
   <time name="dav">    0.02    0.03</time>
   <time name="total">    0.02    0.03</time>
   <energy>
    <i name="e_fr_energy">    -39.87353366 </i>
    <i name="e_wo_entrp">    -39.90832233 </i>
    <i name="e_0_energy">    -39.88512988 </i>
   </energy>
  </scstep>
  <scstep>
   <time name="dav">    0.02    0.03</time>
   <time name="total">    0.03    0.03</time>
   <energy>
    <i name="e_fr_energy">    -39.87353922 </i>
    <i name="e_wo_entrp">    -39.90832789 </i>
    <i name="e_0_energy">    -39.88513544 </i>
   </energy>
  </scstep>
  <scstep>
   <time name="dav">    0.01    0.01</time>
   <time name="total">    0.02    0.03</time>
   <energy>
    <i name="e_fr_energy">    -25.42686541 </i>
    <i name="e_wo_entrp">    -25.46165284 </i>
    <i name="e_0_energy">    -25.43846122 </i>
   </energy>
  </scstep>
  <scstep>
   <time name="dav">    0.02    0.02</time>
   <time name="total">    0.03    0.04</time>
   <energy>
    <i name="e_fr_energy">    -24.73648210 </i>
    <i name="e_wo_entrp">    -24.77126953 </i>
    <i name="e_0_energy">    -24.74807791 </i>
   </energy>
  </scstep>
  <scstep>
   <time name="dav">    0.02    0.02</time>
   <time name="total">    0.03    0.04</time>
   <energy>
    <i name="e_fr_energy">    -24.47860633 </i>
    <i name="e_wo_entrp">    -24.60498625 </i>
    <i name="e_0_energy">    -24.52073297 </i>
   </energy>
  </scstep>
  <scstep>
   <time name="dav">    0.02    0.02</time>
   <time name="total">    0.03    0.04</time>
   <energy>
    <i name="e_fr_energy">    -24.54285813 </i>
    <i name="e_wo_entrp">    -24.39660101 </i>
    <i name="e_0_energy">    -24.49410576 </i>
   </energy>
  </scstep>
  <scstep>
   <time name="dav">    0.01    0.01</time>
   <time name="total">    0.02    0.03</time>
   <energy>
    <i name="e_fr_energy">    -24.50980218 </i>
    <i name="e_wo_entrp">    -24.58249203 </i>
    <i name="e_0_energy">    -24.53403213 </i>
   </energy>
  </scstep>
  <scstep>
   <time name="dav">    0.02    0.02</time>
   <time name="total">    0.03    0.04</time>
   <energy>
    <i name="e_fr_energy">    -24.49422328 </i>
    <i name="e_wo_entrp">    -24.64274175 </i>
    <i name="e_0_energy">    -24.54372943 </i>
   </energy>
  </scstep>
  <scstep>
   <time name="dav">    0.02    0.02</time>
   <time name="total">    0.03    0.03</time>
   <energy>
    <i name="e_fr_energy">    -24.49167233 </i>
    <i name="e_wo_entrp">    -24.63740305 </i>
    <i name="e_0_energy">    -24.54024924 </i>
   </energy>
  </scstep>
  <scstep>
   <time name="dav">    0.02    0.02</time>
   <time name="total">    0.03    0.03</time>
   <energy>
    <i name="e_fr_energy">    -24.48388500 </i>
    <i name="e_wo_entrp">    -24.61008961 </i>
    <i name="e_0_energy">    -24.52595320 </i>
   </energy>
  </scstep>
  <scstep>
   <time name="dav">    0.01    0.01</time>
   <time name="total">    0.02    0.03</time>
   <energy>
    <i name="e_fr_energy">    -24.48255605 </i>
    <i name="e_wo_entrp">    -24.60151396 </i>
    <i name="e_0_energy">    -24.52220869 </i>
   </energy>
  </scstep>
  <scstep>
   <time name="dav">    0.01    0.01</time>
   <time name="total">    0.02    0.03</time>
   <energy>
    <i name="e_fr_energy">    -24.48030581 </i>
    <i name="e_wo_entrp">    -24.56836757 </i>
    <i name="e_0_energy">    -24.50965973 </i>
   </energy>
  </scstep>
  <scstep>
   <time name="dav">    0.01    0.01</time>
   <time name="total">    0.02    0.02</time>
   <energy>
    <i name="alphaZ">    240.34259355 </i>
    <i name="ewald">  -2693.37944630 </i>
    <i name="hartreedc">   -716.48692072 </i>
    <i name="XCdc">    162.99508359 </i>
    <i name="pawpsdc">   3368.10720222 </i>
    <i name="pawaedc">  -3361.84657905 </i>
    <i name="eentropy">      0.08263062 </i>
    <i name="bandstr">   -306.15352161 </i>
    <i name="atom">   3281.85861458 </i>
    <i name="e_fr_energy">    -24.48034310 </i>
    <i name="e_wo_entrp">    -24.56297372 </i>
    <i name="e_0_energy">    -24.50788664 </i>
   </energy>
  </scstep>
  <structure>
   <crystal>
    <varray name="basis" >
     <v>       4.19200000       0.00000000       0.00000000 </v>
     <v>       0.00000000       4.19200000       0.00000000 </v>
     <v>       0.00000000       0.00000000       4.19200000 </v>
    </varray>
    <i name="volume">     73.66544589 </i>
    <varray name="rec_basis" >
     <v>       0.23854962       0.00000000       0.00000000 </v>
     <v>       0.00000000       0.23854962       0.00000000 </v>
     <v>       0.00000000       0.00000000       0.23854962 </v>
    </varray>
   </crystal>
   <varray name="positions" >
    <v>       0.00000000       0.00000000       0.00000000 </v>
    <v>       0.50000000       0.50000000       0.50000000 </v>
    <v>       0.50000000       0.50000000       0.00000000 </v>
    <v>       0.50000000       0.00000000       0.50000000 </v>
    <v>       0.00000000       0.50000000       0.50000000 </v>
   </varray>
  </structure>
  <varray name="forces" >
   <v>      -0.00000000       0.00000000      -0.00000000 </v>
   <v>       0.00000000      -0.00000000       0.00000000 </v>
   <v>      -0.00000000      -0.00000000      -0.00000000 </v>
   <v>       0.00000000       0.00000000      -0.00000000 </v>
   <v>      -0.00000000       0.00000000      -0.00000000 </v>
  </varray>
  <varray name="stress" >
   <v>     376.04541428       0.00000000      -0.00000000 </v>
   <v>       0.00000000     376.04541428       0.00000000 </v>
   <v>       0.00000000      -0.00000000     376.04541428 </v>
  </varray>
  <energy>
   <i name="e_fr_energy">    -24.48034310 </i>
   <i name="e_wo_entrp">    -24.56297372 </i>
   <i name="e_0_energy">    -24.50788664 </i>
  </energy>
  <time name="totalsc">    0.53    0.68</time>
  <eigenvalues>
   <array>
    <dimension dim="1">band</dimension>
    <dimension dim="2">kpoint</dimension>
    <dimension dim="3">spin</dimension>
    <field>eigene</field>
    <field>occ</field>
    <set>
     <set comment="spin 1">
      <set comment="kpoint 1">
       <r>  -46.4343    1.0000 </r>
       <r>  -24.2621    1.0000 </r>
       <r>  -24.2621    1.0000 </r>
       <r>  -24.2621    1.0000 </r>
       <r>  -21.3601    1.0000 </r>
       <r>  -11.0086    1.0000 </r>
       <r>  -10.6590    1.0000 </r>
       <r>  -10.6590    1.0000 </r>
       <r>   -6.4824    1.0000 </r>
       <r>   -6.4824    1.0000 </r>
       <r>   -6.4824    1.0000 </r>
       <r>    3.4907    1.0000 </r>
       <r>    3.4907    1.0000 </r>
       <r>    3.4907    1.0000 </r>
       <r>    4.4367    1.0000 </r>
       <r>    4.4367    1.0000 </r>
       <r>    4.4367    1.0000 </r>
       <r>    5.1674    1.0063 </r>
       <r>    5.1674    1.0063 </r>
       <r>    5.1674    1.0063 </r>
       <r>    5.5164   -0.0063 </r>
       <r>    5.5164   -0.0063 </r>
       <r>    5.5164   -0.0063 </r>
       <r>    8.9474   -0.0000 </r>
       <r>    8.9474   -0.0000 </r>
       <r>    9.3328   -0.0000 </r>
       <r>    9.3328   -0.0000 </r>
       <r>   10.3955    0.0000 </r>
       <r>   12.1436    0.0000 </r>
       <r>   12.1436    0.0000 </r>
       <r>   12.1436    0.0000 </r>
       <r>   18.9744    0.0000 </r>
       <r>   19.9547    0.0000 </r>
       <r>   19.9547    0.0000 </r>
       <r>   19.9547    0.0000 </r>
       <r>   21.3793    0.0000 </r>
       <r>   23.6973    0.0000 </r>
       <r>   23.6973    0.0000 </r>
       <r>   23.6973    0.0000 </r>
       <r>   24.9039    0.0000 </r>
      </set>
     </set>
    </set>
   </array>
  </eigenvalues>
  <separator name="orbital magnetization" >
   <v name="MAGDIPOLOUT">      0.00000000      0.00000000      0.00000000</v>
  </separator>
  <dos>
   <i name="efermi">      5.34189200 </i>
   <total>
    <array>
     <dimension dim="1">gridpoints</dimension>
     <dimension dim="2">spin</dimension>
     <field>energy</field>
     <field>total</field>
     <field>integrated</field>
     <set>
      <set comment="spin 1">
       <r>   -50.0012     0.0000     0.0000 </r>
       <r>   -49.7396     0.0000     0.0000 </r>
       <r>   -49.4781     0.0000     0.0000 </r>
       <r>   -49.2165     0.0000     0.0000 </r>
       <r>   -48.9549     0.0000     0.0000 </r>
       <r>   -48.6933     0.0000     0.0000 </r>
       <r>   -48.4318     0.0000     0.0000 </r>
       <r>   -48.1702    -0.0000    -0.0000 </r>
       <r>   -47.9086    -0.0000    -0.0000 </r>
       <r>   -47.6470    -0.0000    -0.0000 </r>
       <r>   -47.3855    -0.0000    -0.0000 </r>
       <r>   -47.1239    -0.0000    -0.0000 </r>
       <r>   -46.8623    -0.0378    -0.0099 </r>
       <r>   -46.6007     0.0543     0.0043 </r>
       <r>   -46.3392     6.5316     1.7128 </r>
       <r>   -46.0776     1.2133     2.0302 </r>
       <r>   -45.8160    -0.1148     2.0001 </r>
       <r>   -45.5545    -0.0004     2.0000 </r>
       <r>   -45.2929    -0.0000     2.0000 </r>
       <r>   -45.0313    -0.0000     2.0000 </r>
       <r>   -44.7697     0.0000     2.0000 </r>
       <r>   -44.5082     0.0000     2.0000 </r>
       <r>   -44.2466     0.0000     2.0000 </r>
       <r>   -43.9850     0.0000     2.0000 </r>
       <r>   -43.7234     0.0000     2.0000 </r>
       <r>   -43.4619     0.0000     2.0000 </r>
       <r>   -43.2003     0.0000     2.0000 </r>
       <r>   -42.9387     0.0000     2.0000 </r>
       <r>   -42.6771     0.0000     2.0000 </r>
       <r>   -42.4156     0.0000     2.0000 </r>
       <r>   -42.1540     0.0000     2.0000 </r>
       <r>   -41.8924     0.0000     2.0000 </r>
       <r>   -41.6309     0.0000     2.0000 </r>
       <r>   -41.3693     0.0000     2.0000 </r>
       <r>   -41.1077     0.0000     2.0000 </r>
       <r>   -40.8461     0.0000     2.0000 </r>
       <r>   -40.5846     0.0000     2.0000 </r>
       <r>   -40.3230     0.0000     2.0000 </r>
       <r>   -40.0614     0.0000     2.0000 </r>
       <r>   -39.7998     0.0000     2.0000 </r>
       <r>   -39.5383     0.0000     2.0000 </r>
       <r>   -39.2767     0.0000     2.0000 </r>
       <r>   -39.0151     0.0000     2.0000 </r>
       <r>   -38.7535     0.0000     2.0000 </r>
       <r>   -38.4920     0.0000     2.0000 </r>
       <r>   -38.2304     0.0000     2.0000 </r>
       <r>   -37.9688     0.0000     2.0000 </r>
       <r>   -37.7073     0.0000     2.0000 </r>
       <r>   -37.4457     0.0000     2.0000 </r>
       <r>   -37.1841     0.0000     2.0000 </r>
       <r>   -36.9225     0.0000     2.0000 </r>
       <r>   -36.6610     0.0000     2.0000 </r>
       <r>   -36.3994     0.0000     2.0000 </r>
       <r>   -36.1378     0.0000     2.0000 </r>
       <r>   -35.8762     0.0000     2.0000 </r>
       <r>   -35.6147     0.0000     2.0000 </r>
       <r>   -35.3531     0.0000     2.0000 </r>
       <r>   -35.0915     0.0000     2.0000 </r>
       <r>   -34.8299     0.0000     2.0000 </r>
       <r>   -34.5684     0.0000     2.0000 </r>
       <r>   -34.3068     0.0000     2.0000 </r>
       <r>   -34.0452     0.0000     2.0000 </r>
       <r>   -33.7836     0.0000     2.0000 </r>
       <r>   -33.5221     0.0000     2.0000 </r>
       <r>   -33.2605     0.0000     2.0000 </r>
       <r>   -32.9989     0.0000     2.0000 </r>
       <r>   -32.7374     0.0000     2.0000 </r>
       <r>   -32.4758     0.0000     2.0000 </r>
       <r>   -32.2142     0.0000     2.0000 </r>
       <r>   -31.9526     0.0000     2.0000 </r>
       <r>   -31.6911     0.0000     2.0000 </r>
       <r>   -31.4295     0.0000     2.0000 </r>
       <r>   -31.1679     0.0000     2.0000 </r>
       <r>   -30.9063     0.0000     2.0000 </r>
       <r>   -30.6448     0.0000     2.0000 </r>
       <r>   -30.3832     0.0000     2.0000 </r>
       <r>   -30.1216     0.0000     2.0000 </r>
       <r>   -29.8600     0.0000     2.0000 </r>
       <r>   -29.5985     0.0000     2.0000 </r>
       <r>   -29.3369     0.0000     2.0000 </r>
       <r>   -29.0753     0.0000     2.0000 </r>
       <r>   -28.8138     0.0000     2.0000 </r>
       <r>   -28.5522     0.0000     2.0000 </r>
       <r>   -28.2906     0.0000     2.0000 </r>
       <r>   -28.0290     0.0000     2.0000 </r>
       <r>   -27.7675     0.0000     2.0000 </r>
       <r>   -27.5059     0.0000     2.0000 </r>
       <r>   -27.2443     0.0000     2.0000 </r>
       <r>   -26.9827     0.0000     2.0000 </r>
       <r>   -26.7212     0.0000     2.0000 </r>
       <r>   -26.4596     0.0000     2.0000 </r>
       <r>   -26.1980     0.0000     2.0000 </r>
       <r>   -25.9364    -0.0000     2.0000 </r>
       <r>   -25.6749    -0.0000     2.0000 </r>
       <r>   -25.4133    -0.0000     2.0000 </r>
       <r>   -25.1517    -0.0000     2.0000 </r>
       <r>   -24.8902    -0.0010     1.9997 </r>
       <r>   -24.6286    -0.3022     1.9207 </r>
       <r>   -24.3670     2.9808     2.7004 </r>
       <r>   -24.1054    19.9316     7.9140 </r>
       <r>   -23.8439     0.4639     8.0353 </r>
       <r>   -23.5823    -0.1349     8.0001 </r>
       <r>   -23.3207    -0.0002     8.0000 </r>
       <r>   -23.0591    -0.0000     8.0000 </r>
       <r>   -22.7976    -0.0000     8.0000 </r>
       <r>   -22.5360    -0.0000     8.0000 </r>
       <r>   -22.2744    -0.0000     8.0000 </r>
       <r>   -22.0128    -0.0002     8.0000 </r>
       <r>   -21.7513    -0.0701     7.9816 </r>
       <r>   -21.4897     0.5253     8.1190 </r>
       <r>   -21.2281     6.7703     9.8900 </r>
       <r>   -20.9666     0.4885    10.0177 </r>
       <r>   -20.7050    -0.0677    10.0000 </r>
       <r>   -20.4434    -0.0001    10.0000 </r>
       <r>   -20.1818    -0.0000    10.0000 </r>
       <r>   -19.9203    -0.0000    10.0000 </r>
       <r>   -19.6587     0.0000    10.0000 </r>
       <r>   -19.3971     0.0000    10.0000 </r>
       <r>   -19.1355     0.0000    10.0000 </r>
       <r>   -18.8740     0.0000    10.0000 </r>
       <r>   -18.6124     0.0000    10.0000 </r>
       <r>   -18.3508     0.0000    10.0000 </r>
       <r>   -18.0892     0.0000    10.0000 </r>
       <r>   -17.8277     0.0000    10.0000 </r>
       <r>   -17.5661     0.0000    10.0000 </r>
       <r>   -17.3045     0.0000    10.0000 </r>
       <r>   -17.0430     0.0000    10.0000 </r>
       <r>   -16.7814     0.0000    10.0000 </r>
       <r>   -16.5198     0.0000    10.0000 </r>
       <r>   -16.2582     0.0000    10.0000 </r>
       <r>   -15.9967     0.0000    10.0000 </r>
       <r>   -15.7351     0.0000    10.0000 </r>
       <r>   -15.4735     0.0000    10.0000 </r>
       <r>   -15.2119     0.0000    10.0000 </r>
       <r>   -14.9504     0.0000    10.0000 </r>
       <r>   -14.6888     0.0000    10.0000 </r>
       <r>   -14.4272     0.0000    10.0000 </r>
       <r>   -14.1656     0.0000    10.0000 </r>
       <r>   -13.9041     0.0000    10.0000 </r>
       <r>   -13.6425     0.0000    10.0000 </r>
       <r>   -13.3809     0.0000    10.0000 </r>
       <r>   -13.1194     0.0000    10.0000 </r>
       <r>   -12.8578    -0.0000    10.0000 </r>
       <r>   -12.5962    -0.0000    10.0000 </r>
       <r>   -12.3346    -0.0000    10.0000 </r>
       <r>   -12.0731    -0.0000    10.0000 </r>
       <r>   -11.8115    -0.0000    10.0000 </r>
       <r>   -11.5499    -0.0034     9.9991 </r>
       <r>   -11.2883    -0.2406     9.9362 </r>
       <r>   -11.0268     3.2842    10.7952 </r>
       <r>   -10.7652     6.6116    12.5247 </r>
       <r>   -10.5036    13.0485    15.9378 </r>
       <r>   -10.2420     0.3297    16.0241 </r>
       <r>    -9.9805    -0.0919    16.0000 </r>
       <r>    -9.7189    -0.0001    16.0000 </r>
       <r>    -9.4573    -0.0000    16.0000 </r>
       <r>    -9.1957    -0.0000    16.0000 </r>
       <r>    -8.9342     0.0000    16.0000 </r>
       <r>    -8.6726     0.0000    16.0000 </r>
       <r>    -8.4110     0.0000    16.0000 </r>
       <r>    -8.1495    -0.0000    16.0000 </r>
       <r>    -7.8879    -0.0000    16.0000 </r>
       <r>    -7.6263    -0.0000    16.0000 </r>
       <r>    -7.3647    -0.0000    16.0000 </r>
       <r>    -7.1032    -0.0012    15.9997 </r>
       <r>    -6.8416    -0.3333    15.9125 </r>
       <r>    -6.5800     3.4643    16.8187 </r>
       <r>    -6.3184    19.6915    21.9694 </r>
       <r>    -6.0569     0.2357    22.0311 </r>
       <r>    -5.7953    -0.1187    22.0000 </r>
       <r>    -5.5337    -0.0002    22.0000 </r>
       <r>    -5.2721    -0.0000    22.0000 </r>
       <r>    -5.0106    -0.0000    22.0000 </r>
       <r>    -4.7490     0.0000    22.0000 </r>
       <r>    -4.4874     0.0000    22.0000 </r>
       <r>    -4.2259     0.0000    22.0000 </r>
       <r>    -3.9643     0.0000    22.0000 </r>
       <r>    -3.7027     0.0000    22.0000 </r>
       <r>    -3.4411     0.0000    22.0000 </r>
       <r>    -3.1796     0.0000    22.0000 </r>
       <r>    -2.9180     0.0000    22.0000 </r>
       <r>    -2.6564     0.0000    22.0000 </r>
       <r>    -2.3948     0.0000    22.0000 </r>
       <r>    -2.1333     0.0000    22.0000 </r>
       <r>    -1.8717     0.0000    22.0000 </r>
       <r>    -1.6101     0.0000    22.0000 </r>
       <r>    -1.3485     0.0000    22.0000 </r>
       <r>    -1.0870     0.0000    22.0000 </r>
       <r>    -0.8254     0.0000    22.0000 </r>
       <r>    -0.5638     0.0000    22.0000 </r>
       <r>    -0.3023     0.0000    22.0000 </r>
       <r>    -0.0407     0.0000    22.0000 </r>
       <r>     0.2209     0.0000    22.0000 </r>
       <r>     0.4825     0.0000    22.0000 </r>
       <r>     0.7440     0.0000    22.0000 </r>
       <r>     1.0056     0.0000    22.0000 </r>
       <r>     1.2672     0.0000    22.0000 </r>
       <r>     1.5288     0.0000    22.0000 </r>
       <r>     1.7903    -0.0000    22.0000 </r>
       <r>     2.0519    -0.0000    22.0000 </r>
       <r>     2.3135    -0.0000    22.0000 </r>
       <r>     2.5751    -0.0000    22.0000 </r>
       <r>     2.8366    -0.0004    21.9999 </r>
       <r>     3.0982    -0.2062    21.9460 </r>
       <r>     3.3598     1.5133    22.3418 </r>
       <r>     3.6213    20.3117    27.6548 </r>
       <r>     3.8829     1.5199    28.0524 </r>
       <r>     4.1445    -0.8730    27.8240 </r>
       <r>     4.4061     9.2080    30.2326 </r>
       <r>     4.6676    15.1705    34.2008 </r>
       <r>     4.9292    -1.5484    33.7958 </r>
       <r>     5.1908    14.0047    37.4590 </r>
       <r>     5.4524    16.0140    41.6479 </r>
       <r>     5.7139    17.1931    46.1451 </r>
       <r>     5.9755    -0.4917    46.0165 </r>
       <r>     6.2371    -0.0630    46.0000 </r>
       <r>     6.4987    -0.0000    46.0000 </r>
       <r>     6.7602    -0.0000    46.0000 </r>
       <r>     7.0218     0.0000    46.0000 </r>
       <r>     7.2834    -0.0000    46.0000 </r>
       <r>     7.5449    -0.0000    46.0000 </r>
       <r>     7.8065    -0.0000    46.0000 </r>
       <r>     8.0681    -0.0000    46.0000 </r>
       <r>     8.3297    -0.0009    45.9998 </r>
       <r>     8.5912    -0.2312    45.9393 </r>
       <r>     8.8528     2.4222    46.5729 </r>
       <r>     9.1144    12.5847    49.8647 </r>
       <r>     9.3760    10.9607    52.7317 </r>
       <r>     9.6375     5.2552    54.1064 </r>
       <r>     9.8991    -0.4126    53.9984 </r>
       <r>    10.1607    -0.2618    53.9299 </r>
       <r>    10.4223     4.9475    55.2241 </r>
       <r>    10.6838     3.1970    56.0603 </r>
       <r>    10.9454    -0.2279    56.0007 </r>
       <r>    11.2070    -0.0027    56.0000 </r>
       <r>    11.4685    -0.0002    55.9999 </r>
       <r>    11.7301    -0.1464    55.9616 </r>
       <r>    11.9917     0.6300    56.1264 </r>
       <r>    12.2533    20.0584    61.3732 </r>
       <r>    12.5148     2.6799    62.0742 </r>
       <r>    12.7764    -0.2828    62.0002 </r>
       <r>    13.0380    -0.0008    62.0000 </r>
       <r>    13.2996    -0.0000    62.0000 </r>
       <r>    13.5611    -0.0000    62.0000 </r>
       <r>    13.8227     0.0000    62.0000 </r>
       <r>    14.0843     0.0000    62.0000 </r>
       <r>    14.3459     0.0000    62.0000 </r>
       <r>    14.6074     0.0000    62.0000 </r>
       <r>    14.8690     0.0000    62.0000 </r>
       <r>    15.1306     0.0000    62.0000 </r>
       <r>    15.3922     0.0000    62.0000 </r>
       <r>    15.6537     0.0000    62.0000 </r>
       <r>    15.9153     0.0000    62.0000 </r>
       <r>    16.1769     0.0000    62.0000 </r>
       <r>    16.4384     0.0000    62.0000 </r>
       <r>    16.7000     0.0000    62.0000 </r>
       <r>    16.9616     0.0000    62.0000 </r>
       <r>    17.2232    -0.0000    62.0000 </r>
       <r>    17.4847    -0.0000    62.0000 </r>
       <r>    17.7463    -0.0000    62.0000 </r>
       <r>    18.0079    -0.0000    62.0000 </r>
       <r>    18.2695    -0.0000    62.0000 </r>
       <r>    18.5310    -0.0285    61.9925 </r>
       <r>    18.7926    -0.0699    61.9742 </r>
       <r>    19.0542     6.2902    63.6196 </r>
       <r>    19.3158     1.5932    64.0363 </r>
       <r>    19.5773    -0.3980    63.9322 </r>
       <r>    19.8389     2.3175    64.5384 </r>
       <r>    20.1005    20.1829    69.8177 </r>
       <r>    20.3620     0.8594    70.0425 </r>
       <r>    20.6236    -0.1622    70.0001 </r>
       <r>    20.8852    -0.0104    69.9974 </r>
       <r>    21.1468    -0.2561    69.9304 </r>
       <r>    21.4083     5.0189    71.2432 </r>
       <r>    21.6699     3.1202    72.0594 </r>
       <r>    21.9315    -0.2244    72.0007 </r>
       <r>    22.1931    -0.0025    72.0000 </r>
       <r>    22.4546    -0.0000    72.0000 </r>
       <r>    22.7162    -0.0000    72.0000 </r>
       <r>    22.9778    -0.0001    72.0000 </r>
       <r>    23.2394    -0.0645    71.9831 </r>
       <r>    23.5009    -0.4659    71.8613 </r>
       <r>    23.7625    17.9729    76.5625 </r>
       <r>    24.0241     5.9888    78.1290 </r>
       <r>    24.2856    -0.4906    78.0007 </r>
       <r>    24.5472    -0.1178    77.9698 </r>
       <r>    24.8088     1.2133    78.2872 </r>
       <r>    25.0704     6.5316    79.9957 </r>
       <r>    25.3319     0.0543    80.0099 </r>
       <r>    25.5935    -0.0378    80.0000 </r>
       <r>    25.8551    -0.0000    80.0000 </r>
       <r>    26.1167    -0.0000    80.0000 </r>
       <r>    26.3782    -0.0000    80.0000 </r>
       <r>    26.6398     0.0000    80.0000 </r>
       <r>    26.9014     0.0000    80.0000 </r>
       <r>    27.1630     0.0000    80.0000 </r>
       <r>    27.4245     0.0000    80.0000 </r>
       <r>    27.6861     0.0000    80.0000 </r>
       <r>    27.9477     0.0000    80.0000 </r>
       <r>    28.2092     0.0000    80.0000 </r>
       <r>    28.4708     0.0000    80.0000 </r>
      </set>
     </set>
    </array>
   </total>
  </dos>
 </calculation>
 <structure name="finalpos" >
  <crystal>
   <varray name="basis" >
    <v>       4.19200000       0.00000000       0.00000000 </v>
    <v>       0.00000000       4.19200000       0.00000000 </v>
    <v>       0.00000000       0.00000000       4.19200000 </v>
   </varray>
   <i name="volume">     73.66544589 </i>
   <varray name="rec_basis" >
    <v>       0.23854962       0.00000000       0.00000000 </v>
    <v>       0.00000000       0.23854962       0.00000000 </v>
    <v>       0.00000000       0.00000000       0.23854962 </v>
   </varray>
  </crystal>
  <varray name="positions" >
   <v>       0.00000000       0.00000000       0.00000000 </v>
   <v>       0.50000000       0.50000000       0.50000000 </v>
   <v>       0.50000000       0.50000000       0.00000000 </v>
   <v>       0.50000000       0.00000000       0.50000000 </v>
   <v>       0.00000000       0.50000000       0.50000000 </v>
  </varray>
 </structure>
</modeling>
