unknown system                          
   1.00000000000000     
     4.192000    0.000000    0.000000
     0.000000    4.192000    0.000000
     0.000000    0.000000    4.192000
   Ba   Zr   O    H 
     1     1     3     1
Direct
  0.000000  0.000000  0.000000
  0.500000  0.500000  0.500000
  0.500000  0.000000  0.500000
  0.000000  0.500000  0.500000
  0.500000  0.500000  0.000000
  0.500000  0.500000  0.229008
 
   48   48   48
 -.60441      4.9046      20.188      41.862      65.321      85.920      100.06      105.86      103.29      93.837    
  79.860      63.926      48.265      34.480      23.501      15.555      10.094      6.4495      4.0595      2.5088    
  1.5131     0.88715     0.51242     0.31501     0.25366     0.31501     0.51242     0.88715      1.5131      2.5088    
  4.0595      6.4495      10.094      15.555      23.501      34.480      48.265      63.926      79.860      93.837    
  103.29      105.86      100.06      85.920      65.321      41.862      20.188      4.9046      4.9046      10.201    
  24.884      45.666      68.081      87.632      100.84      105.92      102.86      93.139      79.081      63.192    
  47.649      34.012      23.181      15.355      9.9783      6.3889      4.0343      2.5053      1.5227     0.90414    
 0.53339     0.33785     0.27705     0.33785     0.53339     0.90414      1.5227      2.5053      4.0343      6.3889    
  9.9783      15.355      23.181      34.012      47.649      63.192      79.081      93.139      102.86      105.92    
  100.84      87.632      68.081      45.666      24.884      10.201      20.188      24.884      37.864      56.127    
  75.596      92.194      102.80      105.85      101.44      91.001      76.746      61.017      45.836      32.642    
  22.251      14.778      9.6473      6.2222      3.9736      2.5119      1.5712     0.97846     0.62282     0.43513    
 0.37675     0.43513     0.62282     0.97846      1.5712      2.5119      3.9736      6.2222      9.6473      14.778    
  22.251      32.642      45.836      61.017      76.746      91.001      101.44      105.85      102.80      92.194    
  75.596      56.127      37.864      24.884      41.862      45.666      56.127      70.665      85.797      98.068    
  104.88      105.02      98.706      87.320      72.878      57.486      42.933      30.475      20.801      13.887    
  9.1487      5.9866      3.9105      2.5610      1.6932      1.1476     0.82134     0.64976     0.59650     0.64976    
 0.82134      1.1476      1.6932      2.5610      3.9105      5.9866      9.1487      13.887      20.801      30.475    
  42.933      57.486      72.878      87.320      98.706      105.02      104.88      98.068      85.797      70.665    
  56.127      45.666      65.321      68.081      75.596      85.797      95.907      103.21      105.73      102.63    
  94.293      82.007      67.556      52.757      39.121      27.682      18.966      12.778      8.5472      5.7267    
  3.8762      2.6747      1.9046      1.4230      1.1371     0.98777     0.94164     0.98777      1.1371      1.4230    
  1.9046      2.6747      3.8762      5.7267      8.5472      12.778      18.966      27.682      39.121      52.757    
  67.556      82.007      94.293      102.63      105.73      103.21      95.907      85.797      75.596      68.081    
  85.920      87.632      92.194      98.068      103.21      105.66      104.07      97.995      87.937      75.081    
  60.960      47.077      34.652      24.491      16.910      11.560      7.9131      5.4866      3.8975      2.8695    
  2.2148      1.8094      1.5717      1.4491      1.4115      1.4491      1.5717      1.8094      2.2148      2.8695    
  3.8975      5.4866      7.9131      11.560      16.910      24.491      34.652      47.077      60.960      75.081    
  87.937      97.995      104.07      105.66      103.21      98.068      92.194      87.632      100.06      100.84    
  102.80      104.88      105.73      104.07      99.118      90.781      79.635      66.749      53.397      40.781    
  29.841      21.166      14.806      10.345      7.3175      5.3126      4.0092      3.1766      2.6573      2.3451    
  2.1687      2.0811      2.0549      2.0811      2.1687      2.3451      2.6573      3.1766      4.0092      5.3126    
  7.3175      10.345      14.806      21.166      29.841      40.781      53.397      66.749      79.635      90.781    
  99.118      104.07      105.73      104.88      102.80      100.84      105.86      105.92      105.85      105.02    
  102.63      97.995      90.781      81.147      69.716      57.423      45.300      34.275      25.042      17.951    
  12.813      9.2382      6.8330      5.2616      4.2643      3.6537      3.2985      3.1067      3.0136      2.9753    
  2.9654      2.9753      3.0136      3.1067      3.2985      3.6537      4.2643      5.2616      6.8330      9.2382    
  12.813      17.951      25.042      34.275      45.300      57.423      69.716      81.147      90.781      97.995    
  102.63      105.02      105.85      105.92      103.29      102.86      101.44      98.706      94.293      87.937    
  79.635      69.716      58.802      47.688      37.189      28.001      20.601      15.047      11.070      8.3398    
  6.5418      5.4123      4.7472      4.3951      4.2435      4.2088      4.2284      4.2580      4.2709      4.2580    
  4.2284      4.2088      4.2435      4.3951      4.7472      5.4123      6.5418      8.3398      11.070      15.047    
  20.601      28.001      37.189      47.688      58.802      69.716      79.635      87.937      94.293      98.706    
  101.44      102.86      93.837      93.139      91.001      87.320      82.007      75.081      66.749      57.423    
  47.688      38.203      29.598      22.376      16.754      12.602      9.6861      7.7460      6.5429      5.8770    
  5.5887      5.5507      5.6604      5.8342      6.0064      6.1292      6.1734      6.1292      6.0064      5.8342    
  5.6604      5.5507      5.5887      5.8770      6.5429      7.7460      9.6861      12.602      16.754      22.376    
  29.598      38.203      47.688      57.423      66.749      75.081      82.007      87.320      91.001      93.139    
  79.860      79.081      76.746      72.878      67.556      60.960      53.397      45.300      37.189      29.598    
  23.001      17.680      13.626      10.709      8.7467      7.5521      6.9527      6.7991      6.9613      7.3230    
  7.7794      8.2383      8.6235      8.8781      8.9669      8.8781      8.6235      8.2383      7.7794      7.3230    
  6.9613      6.7991      6.9527      7.5521      8.7467      10.709      13.626      17.680      23.001      29.598    
  37.189      45.300      53.397      60.960      67.556      72.878      76.746      79.081      63.926      63.192    
  61.017      57.486      52.757      47.077      40.781      34.275      28.001      22.376      17.680      13.986    
  11.262      9.4131      8.3169      7.8496      7.8926      8.3308      9.0489      9.9287      10.853      11.709    
  12.399      12.847      13.001      12.847      12.399      11.709      10.853      9.9287      9.0489      8.3308    
  7.8926      7.8496      8.3169      9.4131      11.262      13.986      17.680      22.376      28.001      34.275    
  40.781      47.077      52.757      57.486      61.017      63.192      48.265      47.649      45.836      42.933    
  39.121      34.652      29.841      25.042      20.601      16.754      13.626      11.262      9.6473      8.7301    
  8.4453      8.7203      9.4747      10.615      12.030      13.594      15.165      16.596      17.747      18.493    
  18.752      18.493      17.747      16.596      15.165      13.594      12.030      10.615      9.4747      8.7203    
  8.4453      8.7301      9.6473      11.262      13.626      16.754      20.601      25.042      29.841      34.652    
  39.121      42.933      45.836      47.649      34.480      34.012      32.642      30.475      27.682      24.491    
  21.166      17.951      15.047      12.602      10.709      9.4131      8.7301      8.6540      9.1655      10.232    
  11.802      13.802      16.130      18.649      21.185      23.524      25.431      26.684      27.122      26.684    
  25.431      23.524      21.185      18.649      16.130      13.802      11.802      10.232      9.1655      8.6540    
  8.7301      9.4131      10.709      12.602      15.047      17.951      21.166      24.491      27.682      30.475    
  32.642      34.012      23.501      23.181      22.251      20.801      18.966      16.910      14.806      12.813    
  11.070      9.6861      8.7467      8.3169      8.4453      9.1655      10.496      12.440      14.988      18.105    
  21.722      25.700      29.803      33.686      36.923      39.084      39.845      39.084      36.923      33.686    
  29.803      25.700      21.722      18.105      14.988      12.440      10.496      9.1655      8.4453      8.3169    
  8.7467      9.6861      11.070      12.813      14.806      16.910      18.966      20.801      22.251      23.181    
  15.555      15.355      14.778      13.887      12.778      11.560      10.345      9.2382      8.3398      7.7460    
  7.5521      7.8496      8.7203      10.232      12.440      15.406      19.194      23.868      29.433      35.757    
  42.491      49.035      54.597      58.356      59.687      58.356      54.597      49.035      42.491      35.757    
  29.433      23.868      19.194      15.406      12.440      10.232      8.7203      7.8496      7.5521      7.7460    
  8.3398      9.2382      10.345      11.560      12.778      13.887      14.778      15.355      10.094      9.9783    
  9.6473      9.1487      8.5472      7.9131      7.3175      6.8330      6.5418      6.5429      6.9527      7.8926    
  9.4747      11.802      14.988      19.194      24.643      31.576      40.142      50.217      61.232      72.121    
  81.461      87.811      90.073      87.811      81.461      72.121      61.232      50.217      40.142      31.576    
  24.643      19.194      14.988      11.802      9.4747      7.8926      6.9527      6.5429      6.5418      6.8330    
  7.3175      7.9131      8.5472      9.1487      9.6473      9.9783      6.4495      6.3889      6.2222      5.9866    
  5.7267      5.4866      5.3126      5.2616      5.4123      5.8770      6.7991      8.3308      10.615      13.802    
  18.105      23.868      31.576      41.769      54.812      70.539      87.968      105.61      121.37      132.44    
  136.44      132.44      121.37      105.61      87.968      70.539      54.812      41.769      31.576      23.868    
  18.105      13.802      10.615      8.3308      6.7991      5.8770      5.4123      5.2616      5.3126      5.4866    
  5.7267      5.9866      6.2222      6.3889      4.0595      4.0343      3.9736      3.9105      3.8762      3.8975    
  4.0092      4.2643      4.7472      5.5887      6.9613      9.0489      12.030      16.130      21.722      29.433    
  40.142      54.812      74.048      97.615      125.08      154.29      180.79      199.38      206.07      199.38    
  180.79      154.29      125.08      97.615      74.048      54.812      40.142      29.433      21.722      16.130    
  12.030      9.0489      6.9613      5.5887      4.7472      4.2643      4.0092      3.8975      3.8762      3.9105    
  3.9736      4.0343      2.5088      2.5053      2.5119      2.5610      2.6747      2.8695      3.1766      3.6537    
  4.3951      5.5507      7.3230      9.9287      13.594      18.649      25.700      35.757      50.217      70.539    
  97.615      132.68      175.21      220.35      260.45      287.96      297.72      287.96      260.45      220.35    
  175.21      132.68      97.615      70.539      50.217      35.757      25.700      18.649      13.594      9.9287    
  7.3230      5.5507      4.3951      3.6537      3.1766      2.8695      2.6747      2.5610      2.5119      2.5053    
  1.5131      1.5227      1.5712      1.6932      1.9046      2.2148      2.6573      3.2985      4.2435      5.6604    
  7.7794      10.853      15.165      21.185      29.803      42.491      61.232      87.968      125.08      175.21    
  235.63      297.78      350.83      385.90      398.07      385.90      350.83      297.78      235.63      175.21    
  125.08      87.968      61.232      42.491      29.803      21.185      15.165      10.853      7.7794      5.6604    
  4.2435      3.2985      2.6573      2.2148      1.9046      1.6932      1.5712      1.5227     0.88715     0.90414    
 0.97846      1.1476      1.4230      1.8094      2.3451      3.1067      4.2088      5.8342      8.2383      11.709    
  16.596      23.524      33.686      49.035      72.121      105.61      154.29      220.35      297.78      373.96    
  435.65      474.43      487.46      474.43      435.65      373.96      297.78      220.35      154.29      105.61    
  72.121      49.035      33.686      23.524      16.596      11.709      8.2383      5.8342      4.2088      3.1067    
  2.3451      1.8094      1.4230      1.1476     0.97846     0.90414     0.51242     0.53339     0.62282     0.82134    
  1.1371      1.5717      2.1687      3.0136      4.2284      6.0064      8.6235      12.399      17.747      25.431    
  36.923      54.597      81.461      121.37      180.79      260.45      350.83      435.65      500.40      538.66    
  550.97      538.66      500.40      435.65      350.83      260.45      180.79      121.37      81.461      54.597    
  36.923      25.431      17.747      12.399      8.6235      6.0064      4.2284      3.0136      2.1687      1.5717    
  1.1371     0.82134     0.62282     0.53339     0.31501     0.33785     0.43513     0.64976     0.98777      1.4491    
  2.0811      2.9753      4.2580      6.1292      8.8781      12.847      18.493      26.684      39.084      58.356    
  87.811      132.44      199.38      287.96      385.90      474.43      538.66      574.41      585.38      574.41    
  538.66      474.43      385.90      287.96      199.38      132.44      87.811      58.356      39.084      26.684    
  18.493      12.847      8.8781      6.1292      4.2580      2.9753      2.0811      1.4491     0.98777     0.64976    
 0.43513     0.33785     0.25366     0.27705     0.37675     0.59650     0.94164      1.4115      2.0549      2.9654    
  4.2709      6.1734      8.9669      13.001      18.752      27.122      39.845      59.687      90.073      136.44    
  206.07      297.72      398.07      487.46      550.97      585.38      595.72      585.38      550.97      487.46    
  398.07      297.72      206.07      136.44      90.073      59.687      39.845      27.122      18.752      13.001    
  8.9669      6.1734      4.2709      2.9654      2.0549      1.4115     0.94164     0.59650     0.37675     0.27705    
 0.31501     0.33785     0.43513     0.64976     0.98777      1.4491      2.0811      2.9753      4.2580      6.1292    
  8.8781      12.847      18.493      26.684      39.084      58.356      87.811      132.44      199.38      287.96    
  385.90      474.43      538.66      574.41      585.38      574.41      538.66      474.43      385.90      287.96    
  199.38      132.44      87.811      58.356      39.084      26.684      18.493      12.847      8.8781      6.1292    
  4.2580      2.9753      2.0811      1.4491     0.98777     0.64976     0.43513     0.33785     0.51242     0.53339    
 0.62282     0.82134      1.1371      1.5717      2.1687      3.0136      4.2284      6.0064      8.6235      12.399    
  17.747      25.431      36.923      54.597      81.461      121.37      180.79      260.45      350.83      435.65    
  500.40      538.66      550.97      538.66      500.40      435.65      350.83      260.45      180.79      121.37    
  81.461      54.597      36.923      25.431      17.747      12.399      8.6235      6.0064      4.2284      3.0136    
  2.1687      1.5717      1.1371     0.82134     0.62282     0.53339     0.88715     0.90414     0.97846      1.1476    
  1.4230      1.8094      2.3451      3.1067      4.2088      5.8342      8.2383      11.709      16.596      23.524    
  33.686      49.035      72.121      105.61      154.29      220.35      297.78      373.96      435.65      474.43    
  487.46      474.43      435.65      373.96      297.78      220.35      154.29      105.61      72.121      49.035    
  33.686      23.524      16.596      11.709      8.2383      5.8342      4.2088      3.1067      2.3451      1.8094    
  1.4230      1.1476     0.97846     0.90414      1.5131      1.5227      1.5712      1.6932      1.9046      2.2148    
  2.6573      3.2985      4.2435      5.6604      7.7794      10.853      15.165      21.185      29.803      42.491    
  61.232      87.968      125.08      175.21      235.63      297.78      350.83      385.90      398.07      385.90    
  350.83      297.78      235.63      175.21      125.08      87.968      61.232      42.491      29.803      21.185    
  15.165      10.853      7.7794      5.6604      4.2435      3.2985      2.6573      2.2148      1.9046      1.6932    
  1.5712      1.5227      2.5088      2.5053      2.5119      2.5610      2.6747      2.8695      3.1766      3.6537    
  4.3951      5.5507      7.3230      9.9287      13.594      18.649      25.700      35.757      50.217      70.539    
  97.615      132.68      175.21      220.35      260.45      287.96      297.72      287.96      260.45      220.35    
  175.21      132.68      97.615      70.539      50.217      35.757      25.700      18.649      13.594      9.9287    
  7.3230      5.5507      4.3951      3.6537      3.1766      2.8695      2.6747      2.5610      2.5119      2.5053    
  4.0595      4.0343      3.9736      3.9105      3.8762      3.8975      4.0092      4.2643      4.7472      5.5887    
  6.9613      9.0489      12.030      16.130      21.722      29.433      40.142      54.812      74.048      97.615    
  125.08      154.29      180.79      199.38      206.07      199.38      180.79      154.29      125.08      97.615    
  74.048      54.812      40.142      29.433      21.722      16.130      12.030      9.0489      6.9613      5.5887    
  4.7472      4.2643      4.0092      3.8975      3.8762      3.9105      3.9736      4.0343      6.4495      6.3889    
  6.2222      5.9866      5.7267      5.4866      5.3126      5.2616      5.4123      5.8770      6.7991      8.3308    
  10.615      13.802      18.105      23.868      31.576      41.769      54.812      70.539      87.968      105.61    
  121.37      132.44      136.44      132.44      121.37      105.61      87.968      70.539      54.812      41.769    
  31.576      23.868      18.105      13.802      10.615      8.3308      6.7991      5.8770      5.4123      5.2616    
  5.3126      5.4866      5.7267      5.9866      6.2222      6.3889      10.094      9.9783      9.6473      9.1487    
  8.5472      7.9131      7.3175      6.8330      6.5418      6.5429      6.9527      7.8926      9.4747      11.802    
  14.988      19.194      24.643      31.576      40.142      50.217      61.232      72.121      81.461      87.811    
  90.073      87.811      81.461      72.121      61.232      50.217      40.142      31.576      24.643      19.194    
  14.988      11.802      9.4747      7.8926      6.9527      6.5429      6.5418      6.8330      7.3175      7.9131    
  8.5472      9.1487      9.6473      9.9783      15.555      15.355      14.778      13.887      12.778      11.560    
  10.345      9.2382      8.3398      7.7460      7.5521      7.8496      8.7203      10.232      12.440      15.406    
  19.194      23.868      29.433      35.757      42.491      49.035      54.597      58.356      59.687      58.356    
  54.597      49.035      42.491      35.757      29.433      23.868      19.194      15.406      12.440      10.232    
  8.7203      7.8496      7.5521      7.7460      8.3398      9.2382      10.345      11.560      12.778      13.887    
  14.778      15.355      23.501      23.181      22.251      20.801      18.966      16.910      14.806      12.813    
  11.070      9.6861      8.7467      8.3169      8.4453      9.1655      10.496      12.440      14.988      18.105    
  21.722      25.700      29.803      33.686      36.923      39.084      39.845      39.084      36.923      33.686    
  29.803      25.700      21.722      18.105      14.988      12.440      10.496      9.1655      8.4453      8.3169    
  8.7467      9.6861      11.070      12.813      14.806      16.910      18.966      20.801      22.251      23.181    
  34.480      34.012      32.642      30.475      27.682      24.491      21.166      17.951      15.047      12.602    
  10.709      9.4131      8.7301      8.6540      9.1655      10.232      11.802      13.802      16.130      18.649    
  21.185      23.524      25.431      26.684      27.122      26.684      25.431      23.524      21.185      18.649    
  16.130      13.802      11.802      10.232      9.1655      8.6540      8.7301      9.4131      10.709      12.602    
  15.047      17.951      21.166      24.491      27.682      30.475      32.642      34.012      48.265      47.649    
  45.836      42.933      39.121      34.652      29.841      25.042      20.601      16.754      13.626      11.262    
  9.6473      8.7301      8.4453      8.7203      9.4747      10.615      12.030      13.594      15.165      16.596    
  17.747      18.493      18.752      18.493      17.747      16.596      15.165      13.594      12.030      10.615    
  9.4747      8.7203      8.4453      8.7301      9.6473      11.262      13.626      16.754      20.601      25.042    
  29.841      34.652      39.121      42.933      45.836      47.649      63.926      63.192      61.017      57.486    
  52.757      47.077      40.781      34.275      28.001      22.376      17.680      13.986      11.262      9.4131    
  8.3169      7.8496      7.8926      8.3308      9.0489      9.9287      10.853      11.709      12.399      12.847    
  13.001      12.847      12.399      11.709      10.853      9.9287      9.0489      8.3308      7.8926      7.8496    
  8.3169      9.4131      11.262      13.986      17.680      22.376      28.001      34.275      40.781      47.077    
  52.757      57.486      61.017      63.192      79.860      79.081      76.746      72.878      67.556      60.960    
  53.397      45.300      37.189      29.598      23.001      17.680      13.626      10.709      8.7467      7.5521    
  6.9527      6.7991      6.9613      7.3230      7.7794      8.2383      8.6235      8.8781      8.9669      8.8781    
  8.6235      8.2383      7.7794      7.3230      6.9613      6.7991      6.9527      7.5521      8.7467      10.709    
  13.626      17.680      23.001      29.598      37.189      45.300      53.397      60.960      67.556      72.878    
  76.746      79.081      93.837      93.139      91.001      87.320      82.007      75.081      66.749      57.423    
  47.688      38.203      29.598      22.376      16.754      12.602      9.6861      7.7460      6.5429      5.8770    
  5.5887      5.5507      5.6604      5.8342      6.0064      6.1292      6.1734      6.1292      6.0064      5.8342    
  5.6604      5.5507      5.5887      5.8770      6.5429      7.7460      9.6861      12.602      16.754      22.376    
  29.598      38.203      47.688      57.423      66.749      75.081      82.007      87.320      91.001      93.139    
  103.29      102.86      101.44      98.706      94.293      87.937      79.635      69.716      58.802      47.688    
  37.189      28.001      20.601      15.047      11.070      8.3398      6.5418      5.4123      4.7472      4.3951    
  4.2435      4.2088      4.2284      4.2580      4.2709      4.2580      4.2284      4.2088      4.2435      4.3951    
  4.7472      5.4123      6.5418      8.3398      11.070      15.047      20.601      28.001      37.189      47.688    
  58.802      69.716      79.635      87.937      94.293      98.706      101.44      102.86      105.86      105.92    
  105.85      105.02      102.63      97.995      90.781      81.147      69.716      57.423      45.300      34.275    
  25.042      17.951      12.813      9.2382      6.8330      5.2616      4.2643      3.6537      3.2985      3.1067    
  3.0136      2.9753      2.9654      2.9753      3.0136      3.1067      3.2985      3.6537      4.2643      5.2616    
  6.8330      9.2382      12.813      17.951      25.042      34.275      45.300      57.423      69.716      81.147    
  90.781      97.995      102.63      105.02      105.85      105.92      100.06      100.84      102.80      104.88    
  105.73      104.07      99.118      90.781      79.635      66.749      53.397      40.781      29.841      21.166    
  14.806      10.345      7.3175      5.3126      4.0092      3.1766      2.6573      2.3451      2.1687      2.0811    
  2.0549      2.0811      2.1687      2.3451      2.6573      3.1766      4.0092      5.3126      7.3175      10.345    
  14.806      21.166      29.841      40.781      53.397      66.749      79.635      90.781      99.118      104.07    
  105.73      104.88      102.80      100.84      85.920      87.632      92.194      98.068      103.21      105.66    
  104.07      97.995      87.937      75.081      60.960      47.077      34.652      24.491      16.910      11.560    
  7.9131      5.4866      3.8975      2.8695      2.2148      1.8094      1.5717      1.4491      1.4115      1.4491    
  1.5717      1.8094      2.2148      2.8695      3.8975      5.4866      7.9131      11.560      16.910      24.491    
  34.652      47.077      60.960      75.081      87.937      97.995      104.07      105.66      103.21      98.068    
  92.194      87.632      65.321      68.081      75.596      85.797      95.907      103.21      105.73      102.63    
  94.293      82.007      67.556      52.757      39.121      27.682      18.966      12.778      8.5472      5.7267    
  3.8762      2.6747      1.9046      1.4230      1.1371     0.98777     0.94164     0.98777      1.1371      1.4230    
  1.9046      2.6747      3.8762      5.7267      8.5472      12.778      18.966      27.682      39.121      52.757    
  67.556      82.007      94.293      102.63      105.73      103.21      95.907      85.797      75.596      68.081    
  41.862      45.666      56.127      70.665      85.797      98.068      104.88      105.02      98.706      87.320    
  72.878      57.486      42.933      30.475      20.801      13.887      9.1487      5.9866      3.9105      2.5610    
  1.6932      1.1476     0.82134     0.64976     0.59650     0.64976     0.82134      1.1476      1.6932      2.5610    
  3.9105      5.9866      9.1487      13.887      20.801      30.475      42.933      57.486      72.878      87.320    
  98.706      105.02      104.88      98.068      85.797      70.665      56.127      45.666      20.188      24.884    
  37.864      56.127      75.596      92.194      102.80      105.85      101.44      91.001      76.746      61.017    
  45.836      32.642      22.251      14.778      9.6473      6.2222      3.9736      2.5119      1.5712     0.97846    
 0.62282     0.43513     0.37675     0.43513     0.62282     0.97846      1.5712      2.5119      3.9736      6.2222    
  9.6473      14.778      22.251      32.642      45.836      61.017      76.746      91.001      101.44      105.85    
  102.80      92.194      75.596      56.127      37.864      24.884      4.9046      10.201      24.884      45.666    
  68.081      87.632      100.84      105.92      102.86      93.139      79.081      63.192      47.649      34.012    
  23.181      15.355      9.9783      6.3889      4.0343      2.5053      1.5227     0.90414     0.53339     0.33785    
 0.27705     0.33785     0.53339     0.90414      1.5227      2.5053      4.0343      6.3889      9.9783      15.355    
  23.181      34.012      47.649      63.192      79.081      93.139      102.86      105.92      100.84      87.632    
  68.081      45.666      24.884      10.201      4.9412      10.231      24.893      45.647      68.030      87.554    
  100.75      105.82      102.76      93.057      79.018      63.150      47.626      34.006      23.188      15.372    
  10.003      6.4187      4.0678      2.5415      1.5608     0.94372     0.57392     0.37894     0.31832     0.37894    
 0.57392     0.94372      1.5608      2.5415      4.0678      6.4187      10.003      15.372      23.188      34.006    
  47.626      63.150      79.018      93.057      102.76      105.82      100.75      87.554      68.030      45.647    
  24.893      10.231      10.231      15.314      29.394      49.284      70.657      89.166      101.46      105.83    
  102.31      92.352      78.239      62.421      47.016      33.543      22.873      15.175      9.8885      6.3590    
  4.0429      2.5382      1.5703     0.96057     0.59472     0.40161     0.34152     0.40161     0.59472     0.96057    
  1.5703      2.5382      4.0429      6.3590      9.8885      15.175      22.873      33.543      47.016      62.421    
  78.239      92.352      102.31      105.83      101.46      89.166      70.657      49.284      29.394      15.314    
  24.893      29.394      41.824      59.273      77.795      93.447      103.23      105.64      100.83      90.194    
  75.908      60.261      45.223      32.192      21.958      14.608      9.5629      6.1950      3.9834      2.5449    
  1.6186      1.0343     0.68346     0.49814     0.44046     0.49814     0.68346      1.0343      1.6186      2.5449    
  3.9834      6.1950      9.5629      14.608      21.958      32.192      45.223      60.261      75.908      90.194    