unknown system                          
   1.00000000000000     
     4.192000    0.000000    0.000000
     0.000000    4.192000    0.000000
     0.000000    0.000000    4.192000
   Ba   Zr   O    H 
     1     1     3     1
Direct
  0.000000  0.000000  0.000000
  0.500000  0.500000  0.500000
  0.500000  0.000000  0.500000
  0.000000  0.500000  0.500000
  0.500000  0.500000  0.000000
  0.500000  0.500000  0.229008
 
   48   48   48
 -.60441295795E+00 0.49045978349E+01 0.20188272037E+02 0.41862350297E+02 0.65320654127E+02
 0.85920495051E+02 0.10006202135E+03 0.10586223154E+03 0.10329271270E+03 0.93837172441E+02
 0.79860336697E+02 0.63926468555E+02 0.48264664210E+02 0.34479988572E+02 0.23500984229E+02
 0.15555058034E+02 0.10094498541E+02 0.64495438876E+01 0.40595107303E+01 0.25087524244E+01
 0.15130927948E+01 0.88714544996E+00 0.51241704054E+00 0.31500505202E+00 0.25365996367E+00
 0.31500505202E+00 0.51241704054E+00 0.88714544996E+00 0.15130927948E+01 0.25087524244E+01
 0.40595107303E+01 0.64495438876E+01 0.10094498541E+02 0.15555058034E+02 0.23500984229E+02
 0.34479988572E+02 0.48264664210E+02 0.63926468555E+02 0.79860336697E+02 0.93837172441E+02
 0.10329271270E+03 0.10586223154E+03 0.10006202135E+03 0.85920495051E+02 0.65320654127E+02
 0.41862350297E+02 0.20188272037E+02 0.49045978349E+01 0.49045978349E+01 0.10201253097E+02
 0.24883653419E+02 0.45666214259E+02 0.68080910593E+02 0.87631674045E+02 0.10084400304E+03
 0.10591816385E+03 0.10285914994E+03 0.93139238543E+02 0.79080873992E+02 0.63192457571E+02
 0.47648785081E+02 0.34011715659E+02 0.23180768230E+02 0.15355067016E+02 0.99783250984E+01
 0.63889119624E+01 0.40342626022E+01 0.25053125095E+01 0.15226534479E+01 0.90413569373E+00
 0.53338635085E+00 0.33785005636E+00 0.27704564861E+00 0.33785005636E+00 0.53338635085E+00
 0.90413569373E+00 0.15226534479E+01 0.25053125095E+01 0.40342626022E+01 0.63889119624E+01
 0.99783250984E+01 0.15355067016E+02 0.23180768230E+02 0.34011715659E+02 0.47648785081E+02
 0.63192457571E+02 0.79080873992E+02 0.93139238543E+02 0.10285914994E+03 0.10591816385E+03
 0.10084400304E+03 0.87631674045E+02 0.68080910593E+02 0.45666214259E+02 0.24883653419E+02
 0.10201253097E+02 0.20188272037E+02 0.24883653419E+02 0.37864487824E+02 0.56126859175E+02
 0.75596425586E+02 0.92193809264E+02 0.10279936453E+03 0.10584759079E+03 0.10143576213E+03
 0.91001470972E+02 0.76745581999E+02 0.61017050647E+02 0.45836147221E+02 0.32641959624E+02
 0.22251045799E+02 0.14777823289E+02 0.96473395915E+01 0.62221603299E+01 0.39736329769E+01
 0.25119018855E+01 0.15712301080E+01 0.97845592372E+00 0.62281893412E+00 0.43513362191E+00
 0.37674995438E+00 0.43513362191E+00 0.62281893412E+00 0.97845592372E+00 0.15712301080E+01
 0.25119018855E+01 0.39736329769E+01 0.62221603299E+01 0.96473395915E+01 0.14777823289E+02
 0.22251045799E+02 0.32641959624E+02 0.45836147221E+02 0.61017050647E+02 0.76745581999E+02
 0.91001470972E+02 0.10143576213E+03 0.10584759079E+03 0.10279936453E+03 0.92193809264E+02
 0.75596425586E+02 0.56126859175E+02 0.37864487824E+02 0.24883653419E+02 0.41862350297E+02
 0.45666214259E+02 0.56126859175E+02 0.70664880356E+02 0.85797326348E+02 0.98067584568E+02
 0.10488238159E+03 0.10501929193E+03 0.98705590764E+02 0.87320201269E+02 0.72877574348E+02
 0.57485809528E+02 0.42933236596E+02 0.30475264905E+02 0.20800815276E+02 0.13887439087E+02
 0.91487480256E+01 0.59866171929E+01 0.39105485093E+01 0.25609510934E+01 0.16932104786E+01
 0.11475994728E+01 0.82134211420E+00 0.64975801485E+00 0.59650309073E+00 0.64975801485E+00
 0.82134211420E+00 0.11475994728E+01 0.16932104786E+01 0.25609510934E+01 0.39105485093E+01
 0.59866171929E+01 0.91487480256E+01 0.13887439087E+02 0.20800815276E+02 0.30475264905E+02
 0.42933236596E+02 0.57485809528E+02 0.72877574348E+02 0.87320201269E+02 0.98705590764E+02
 0.10501929193E+03 0.10488238159E+03 0.98067584568E+02 0.85797326348E+02 0.70664880356E+02
 0.56126859175E+02 0.45666214259E+02 0.65320654127E+02 0.68080910593E+02 0.75596425586E+02
 0.85797326348E+02 0.95907296651E+02 0.10320860351E+03 0.10572581730E+03 0.10263153001E+03
 0.94293093410E+02 0.82006793205E+02 0.67556102403E+02 0.52757308947E+02 0.39120603491E+02
 0.27682377998E+02 0.18965747590E+02 0.12778279762E+02 0.85471548936E+01 0.57267265320E+01
 0.38761600581E+01 0.26747284115E+01 0.19046257797E+01 0.14230040805E+01 0.11370674722E+01
 0.98776754782E+00 0.94164329418E+00 0.98776754782E+00 0.11370674722E+01 0.14230040805E+01
 0.19046257797E+01 0.26747284115E+01 0.38761600581E+01 0.57267265320E+01 0.85471548936E+01
 0.12778279762E+02 0.18965747590E+02 0.27682377998E+02 0.39120603491E+02 0.52757308947E+02
 0.67556102403E+02 0.82006793205E+02 0.94293093410E+02 0.10263153001E+03 0.10572581730E+03
 0.10320860351E+03 0.95907296651E+02 0.85797326348E+02 0.75596425586E+02 0.68080910593E+02
 0.85920495051E+02 0.87631674045E+02 0.92193809264E+02 0.98067584568E+02 0.10320860351E+03
 0.10565797001E+03 0.10406616238E+03 0.97995320867E+02 0.87936554912E+02 0.75081424927E+02
 0.60959857510E+02 0.47077187218E+02 0.34651543322E+02 0.24491426194E+02 0.16910136332E+02
 0.11560144537E+02 0.79130998281E+01 0.54865817678E+01 0.38975258266E+01 0.28694961492E+01
 0.22147923132E+01 0.18093899038E+01 0.15716959750E+01 0.14491086056E+01 0.14115368627E+01
 0.14491086056E+01 0.15716959750E+01 0.18093899038E+01 0.22147923132E+01 0.28694961492E+01
 0.38975258266E+01 0.54865817678E+01 0.79130998281E+01 0.11560144537E+02 0.16910136332E+02
 0.24491426194E+02 0.34651543322E+02 0.47077187218E+02 0.60959857510E+02 0.75081424927E+02
 0.87936554912E+02 0.97995320867E+02 0.10406616238E+03 0.10565797001E+03 0.10320860351E+03
 0.98067584568E+02 0.92193809264E+02 0.87631674045E+02 0.10006202135E+03 0.10084400304E+03
 0.10279936453E+03 0.10488238159E+03 0.10572581730E+03 0.10406616238E+03 0.99117856368E+02
 0.90781023530E+02 0.79635032408E+02 0.66748864581E+02 0.53396534760E+02 0.40780787738E+02
 0.29841090694E+02 0.21166217928E+02 0.14805795523E+02 0.10344776780E+02 0.73174691113E+01
 0.53126128923E+01 0.40091756019E+01 0.31766081859E+01 0.26572625287E+01 0.23451055620E+01
 0.21687281991E+01 0.20810916525E+01 0.20548872491E+01 0.20810916525E+01 0.21687281991E+01
 0.23451055620E+01 0.26572625287E+01 0.31766081859E+01 0.40091756019E+01 0.53126128923E+01
 0.73174691113E+01 0.10344776780E+02 0.14805795523E+02 0.21166217928E+02 0.29841090694E+02
 0.40780787738E+02 0.53396534760E+02 0.66748864581E+02 0.79635032408E+02 0.90781023530E+02
 0.99117856368E+02 0.10406616238E+03 0.10572581730E+03 0.10488238159E+03 0.10279936453E+03
 0.10084400304E+03 0.10586223154E+03 0.10591816385E+03 0.10584759079E+03 0.10501929193E+03
 0.10263153001E+03 0.97995320867E+02 0.90781023530E+02 0.81147026650E+02 0.69716162397E+02
 0.57423225696E+02 0.45300080583E+02 0.34275308378E+02 0.25042345957E+02 0.17951259464E+02
 0.12813311392E+02 0.92381626471E+01 0.68330326037E+01 0.52615560269E+01 0.42642601030E+01
 0.36536844740E+01 0.32984558343E+01 0.31066561211E+01 0.30136330855E+01 0.29752719495E+01
 0.29653963246E+01 0.29752719495E+01 0.30136330855E+01 0.31066561211E+01 0.32984558343E+01
 0.36536844740E+01 0.42642601030E+01 0.52615560269E+01 0.68330326037E+01 0.92381626471E+01
 0.12813311392E+02 0.17951259464E+02 0.25042345957E+02 0.34275308378E+02 0.45300080583E+02
 0.57423225696E+02 0.69716162397E+02 0.81147026650E+02 0.90781023530E+02 0.97995320867E+02
 0.10263153001E+03 0.10501929193E+03 0.10584759079E+03 0.10591816385E+03 0.10329271270E+03
 0.10285914994E+03 0.10143576213E+03 0.98705590764E+02 0.94293093410E+02 0.87936554912E+02
 0.79635032408E+02 0.69716162397E+02 0.58801665125E+02 0.47687810892E+02 0.37189196894E+02
 0.28000627561E+02 0.20601304140E+02 0.15047352982E+02 0.11070036967E+02 0.83398067490E+01
 0.65417915649E+01 0.54122581929E+01 0.47472484362E+01 0.43950677078E+01 0.42435346533E+01
 0.42088162965E+01 0.42284136561E+01 0.42580340851E+01 0.42709048090E+01 0.42580340851E+01
 0.42284136561E+01 0.42088162965E+01 0.42435346533E+01 0.43950677078E+01 0.47472484362E+01
 0.54122581929E+01 0.65417915649E+01 0.83398067490E+01 0.11070036967E+02 0.15047352982E+02
 0.20601304140E+02 0.28000627561E+02 0.37189196894E+02 0.47687810892E+02 0.58801665125E+02
 0.69716162397E+02 0.79635032408E+02 0.87936554912E+02 0.94293093410E+02 0.98705590764E+02
 0.10143576213E+03 0.10285914994E+03 0.93837172441E+02 0.93139238543E+02 0.91001470972E+02
 0.87320201269E+02 0.82006793205E+02 0.75081424927E+02 0.66748864581E+02 0.57423225696E+02
 0.47687810892E+02 0.38203243388E+02 0.29598000037E+02 0.22376333973E+02 0.16753769068E+02
 0.12602228693E+02 0.96861175052E+01 0.77460210786E+01 0.65429147169E+01 0.58770492920E+01
 0.55887203901E+01 0.55507493380E+01 0.56603651036E+01 0.58341645671E+01 0.60063955237E+01
 0.61291914702E+01 0.61733900683E+01 0.61291914702E+01 0.60063955237E+01 0.58341645671E+01
 0.56603651036E+01 0.55507493380E+01 0.55887203901E+01 0.58770492920E+01 0.65429147169E+01
 0.77460210786E+01 0.96861175052E+01 0.12602228693E+02 0.16753769068E+02 0.22376333973E+02
 0.29598000037E+02 0.38203243388E+02 0.47687810892E+02 0.57423225696E+02 0.66748864581E+02
 0.75081424927E+02 0.82006793205E+02 0.87320201269E+02 0.91001470972E+02 0.93139238543E+02
 0.79860336697E+02 0.79080873992E+02 0.76745581999E+02 0.72877574348E+02 0.67556102403E+02
 0.60959857510E+02 0.53396534760E+02 0.45300080583E+02 0.37189196894E+02 0.29598000037E+02
 0.23001446920E+02 0.17680181561E+02 0.13626055707E+02 0.10708604768E+02 0.87467282065E+01
 0.75520814191E+01 0.69526737179E+01 0.67991317301E+01 0.69613049406E+01 0.73229763129E+01
 0.77793628178E+01 0.82382984557E+01 0.86235198857E+01 0.88780884454E+01 0.89668961468E+01
 0.88780884454E+01 0.86235198857E+01 0.82382984557E+01 0.77793628178E+01 0.73229763129E+01
 0.69613049406E+01 0.67991317301E+01 0.69526737179E+01 0.75520814191E+01 0.87467282065E+01
 0.10708604768E+02 0.13626055707E+02 0.17680181561E+02 0.23001446920E+02 0.29598000037E+02
 0.37189196894E+02 0.45300080583E+02 0.53396534760E+02 0.60959857510E+02 0.67556102403E+02
 0.72877574348E+02 0.76745581999E+02 0.79080873992E+02 0.63926468555E+02 0.63192457571E+02
 0.61017050647E+02 0.57485809528E+02 0.52757308947E+02 0.47077187218E+02 0.40780787738E+02
 0.34275308378E+02 0.28000627561E+02 0.22376333973E+02 0.17680181561E+02 0.13986456870E+02
 0.11262499202E+02 0.94131053986E+01 0.83168913516E+01 0.78496226495E+01 0.78925676797E+01
 0.83308212792E+01 0.90488537585E+01 0.99286974937E+01 0.10852557725E+02 0.11708772515E+02
 0.12399193443E+02 0.12846624679E+02 0.13001479225E+02 0.12846624679E+02 0.12399193443E+02
 0.11708772515E+02 0.10852557725E+02 0.99286974937E+01 0.90488537585E+01 0.83308212792E+01
 0.78925676797E+01 0.78496226495E+01 0.83168913516E+01 0.94131053986E+01 0.11262499202E+02
 0.13986456870E+02 0.17680181561E+02 0.22376333973E+02 0.28000627561E+02 0.34275308378E+02
 0.40780787738E+02 0.47077187218E+02 0.52757308947E+02 0.57485809528E+02 0.61017050647E+02
 0.63192457571E+02 0.48264664210E+02 0.47648785081E+02 0.45836147221E+02 0.42933236596E+02
 0.39120603491E+02 0.34651543322E+02 0.29841090694E+02 0.25042345957E+02 0.20601304140E+02
 0.16753769068E+02 0.13626055707E+02 0.11262499202E+02 0.96473162259E+01 0.87301210555E+01
 0.84452808639E+01 0.87203049220E+01 0.94747238357E+01 0.10614922293E+02 0.12030365705E+02
 0.13593715831E+02 0.15164570679E+02 0.16596269481E+02 0.17746578858E+02 0.18493180035E+02
 0.18752069281E+02 0.18493180035E+02 0.17746578858E+02 0.16596269481E+02 0.15164570679E+02
 0.13593715831E+02 0.12030365705E+02 0.10614922293E+02 0.94747238357E+01 0.87203049220E+01
 0.84452808639E+01 0.87301210555E+01 0.96473162259E+01 0.11262499202E+02 0.13626055707E+02
 0.16753769068E+02 0.20601304140E+02 0.25042345957E+02 0.29841090694E+02 0.34651543322E+02
 0.39120603491E+02 0.42933236596E+02 0.45836147221E+02 0.47648785081E+02 0.34479988572E+02
 0.34011715659E+02 0.32641959624E+02 0.30475264905E+02 0.27682377998E+02 0.24491426194E+02
 0.21166217928E+02 0.17951259464E+02 0.15047352982E+02 0.12602228693E+02 0.10708604768E+02
 0.94131053986E+01 0.87301210555E+01 0.86540184934E+01 0.91654881616E+01 0.10231547738E+02
 0.11801506127E+02 0.13801619081E+02 0.16129640360E+02 0.18649141610E+02 0.21184767220E+02
 0.23523610444E+02 0.25430852033E+02 0.26684366983E+02 0.27122104519E+02 0.26684366983E+02
 0.25430852033E+02 0.23523610444E+02 0.21184767220E+02 0.18649141610E+02 0.16129640360E+02
 0.13801619081E+02 0.11801506127E+02 0.10231547738E+02 0.91654881616E+01 0.86540184934E+01
 0.87301210555E+01 0.94131053986E+01 0.10708604768E+02 0.12602228693E+02 0.15047352982E+02
 0.17951259464E+02 0.21166217928E+02 0.24491426194E+02 0.27682377998E+02 0.30475264905E+02
 0.32641959624E+02 0.34011715659E+02 0.23500984229E+02 0.23180768230E+02 0.22251045799E+02
 0.20800815276E+02 0.18965747590E+02 0.16910136332E+02 0.14805795523E+02 0.12813311392E+02
 0.11070036967E+02 0.96861175052E+01 0.87467282065E+01 0.83168913516E+01 0.84452808639E+01
 0.91654881616E+01 0.10495973643E+02 0.12440492104E+02 0.14987785600E+02 0.18105409151E+02
 0.21722253250E+02 0.25699880790E+02 0.29802582874E+02 0.33685554447E+02 0.36922828800E+02
 0.39084385701E+02 0.39845398423E+02 0.39084385701E+02 0.36922828800E+02 0.33685554447E+02
 0.29802582874E+02 0.25699880790E+02 0.21722253250E+02 0.18105409151E+02 0.14987785600E+02
 0.12440492104E+02 0.10495973643E+02 0.91654881616E+01 0.84452808639E+01 0.83168913516E+01
 0.87467282065E+01 0.96861175052E+01 0.11070036967E+02 0.12813311392E+02 0.14805795523E+02
 0.16910136332E+02 0.18965747590E+02 0.20800815276E+02 0.22251045799E+02 0.23180768230E+02
 0.15555058034E+02 0.15355067016E+02 0.14777823289E+02 0.13887439087E+02 0.12778279762E+02
 0.11560144537E+02 0.10344776780E+02 0.92381626471E+01 0.83398067490E+01 0.77460210786E+01
 0.75520814191E+01 0.78496226495E+01 0.87203049220E+01 0.10231547738E+02 0.12440492104E+02
 0.15405594436E+02 0.19194282427E+02 0.23868221349E+02 0.29432926082E+02 0.35757008655E+02
 0.42491175217E+02 0.49035106496E+02 0.54596859736E+02 0.58355983132E+02 0.59687162629E+02
 0.58355983132E+02 0.54596859736E+02 0.49035106496E+02 0.42491175217E+02 0.35757008655E+02
 0.29432926082E+02 0.23868221349E+02 0.19194282427E+02 0.15405594436E+02 0.12440492104E+02
 0.10231547738E+02 0.87203049220E+01 0.78496226495E+01 0.75520814191E+01 0.77460210786E+01
 0.83398067490E+01 0.92381626471E+01 0.10344776780E+02 0.11560144537E+02 0.12778279762E+02
 0.13887439087E+02 0.14777823289E+02 0.15355067016E+02 0.10094498541E+02 0.99783250984E+01
 0.96473395915E+01 0.91487480256E+01 0.85471548936E+01 0.79130998281E+01 0.73174691113E+01
 0.68330326037E+01 0.65417915649E+01 0.65429147169E+01 0.69526737179E+01 0.78925676797E+01
 0.94747238357E+01 0.11801506127E+02 0.14987785600E+02 0.19194282427E+02 0.24642514920E+02
 0.31575697711E+02 0.40142284269E+02 0.50217182525E+02 0.61231894317E+02 0.72120632733E+02
 0.81461378828E+02 0.87811096068E+02 0.90072743207E+02 0.87811096068E+02 0.81461378828E+02
 0.72120632733E+02 0.61231894317E+02 0.50217182525E+02 0.40142284269E+02 0.31575697711E+02
 0.24642514920E+02 0.19194282427E+02 0.14987785600E+02 0.11801506127E+02 0.94747238357E+01
 0.78925676797E+01 0.69526737179E+01 0.65429147169E+01 0.65417915649E+01 0.68330326037E+01
 0.73174691113E+01 0.79130998281E+01 0.85471548936E+01 0.91487480256E+01 0.96473395915E+01
 0.99783250984E+01 0.64495438876E+01 0.63889119624E+01 0.62221603299E+01 0.59866171929E+01
 0.57267265320E+01 0.54865817678E+01 0.53126128923E+01 0.52615560269E+01 0.54122581929E+01
 0.58770492920E+01 0.67991317301E+01 0.83308212792E+01 0.10614922293E+02 0.13801619081E+02
 0.18105409151E+02 0.23868221349E+02 0.31575697711E+02 0.41769308705E+02 0.54811935763E+02
 0.70539054868E+02 0.87967744707E+02 0.10560853021E+03 0.12136666559E+03 0.13243690032E+03
 0.13643616770E+03 0.13243690032E+03 0.12136666559E+03 0.10560853021E+03 0.87967744707E+02
 0.70539054868E+02 0.54811935763E+02 0.41769308705E+02 0.31575697711E+02 0.23868221349E+02
 0.18105409151E+02 0.13801619081E+02 0.10614922293E+02 0.83308212792E+01 0.67991317301E+01
 0.58770492920E+01 0.54122581929E+01 0.52615560269E+01 0.53126128923E+01 0.54865817678E+01
 0.57267265320E+01 0.59866171929E+01 0.62221603299E+01 0.63889119624E+01 0.40595107303E+01
 0.40342626022E+01 0.39736329769E+01 0.39105485093E+01 0.38761600581E+01 0.38975258266E+01
 0.40091756019E+01 0.42642601030E+01 0.47472484362E+01 0.55887203901E+01 0.69613049406E+01
 0.90488537585E+01 0.12030365705E+02 0.16129640360E+02 0.21722253250E+02 0.29432926082E+02
 0.40142284269E+02 0.54811935763E+02 0.74048277703E+02 0.97615003444E+02 0.12507546192E+03
 0.15429226468E+03 0.18079025809E+03 0.19938100121E+03 0.20607089678E+03 0.19938100121E+03
 0.18079025809E+03 0.15429226468E+03 0.12507546192E+03 0.97615003444E+02 0.74048277703E+02
 0.54811935763E+02 0.40142284269E+02 0.29432926082E+02 0.21722253250E+02 0.16129640360E+02
 0.12030365705E+02 0.90488537585E+01 0.69613049406E+01 0.55887203901E+01 0.47472484362E+01
 0.42642601030E+01 0.40091756019E+01 0.38975258266E+01 0.38761600581E+01 0.39105485093E+01
 0.39736329769E+01 0.40342626022E+01 0.25087524244E+01 0.25053125095E+01 0.25119018855E+01
 0.25609510934E+01 0.26747284115E+01 0.28694961492E+01 0.31766081859E+01 0.36536844740E+01
 0.43950677078E+01 0.55507493380E+01 0.73229763129E+01 0.99286974937E+01 0.13593715831E+02
 0.18649141610E+02 0.25699880790E+02 0.35757008655E+02 0.50217182525E+02 0.70539054868E+02
 0.97615003444E+02 0.13267774947E+03 0.17520749725E+03 0.22035120309E+03 0.26045473744E+03
 0.28795971798E+03 0.29771821856E+03 0.28795971798E+03 0.26045473744E+03 0.22035120309E+03
 0.17520749725E+03 0.13267774947E+03 0.97615003444E+02 0.70539054868E+02 0.50217182525E+02
 0.35757008655E+02 0.25699880790E+02 0.18649141610E+02 0.13593715831E+02 0.99286974937E+01
 0.73229763129E+01 0.55507493380E+01 0.43950677078E+01 0.36536844740E+01 0.31766081859E+01
 0.28694961492E+01 0.26747284115E+01 0.25609510934E+01 0.25119018855E+01 0.25053125095E+01
 0.15130927948E+01 0.15226534479E+01 0.15712301080E+01 0.16932104786E+01 0.19046257797E+01
 0.22147923132E+01 0.26572625287E+01 0.32984558343E+01 0.42435346533E+01 0.56603651036E+01
 0.77793628178E+01 0.10852557725E+02 0.15164570679E+02 0.21184767220E+02 0.29802582874E+02
 0.42491175217E+02 0.61231894317E+02 0.87967744707E+02 0.12507546192E+03 0.17520749725E+03
 0.23562756136E+03 0.29778176688E+03 0.35082910671E+03 0.38589772647E+03 0.39806500066E+03
 0.38589772647E+03 0.35082910671E+03 0.29778176688E+03 0.23562756136E+03 0.17520749725E+03
 0.12507546192E+03 0.87967744707E+02 0.61231894317E+02 0.42491175217E+02 0.29802582874E+02
 0.21184767220E+02 0.15164570679E+02 0.10852557725E+02 0.77793628178E+01 0.56603651036E+01
 0.42435346533E+01 0.32984558343E+01 0.26572625287E+01 0.22147923132E+01 0.19046257797E+01
 0.16932104786E+01 0.15712301080E+01 0.15226534479E+01 0.88714544996E+00 0.90413569373E+00
 0.97845592372E+00 0.11475994728E+01 0.14230040805E+01 0.18093899038E+01 0.23451055620E+01
 0.31066561211E+01 0.42088162965E+01 0.58341645671E+01 0.82382984557E+01 0.11708772515E+02
 0.16596269481E+02 0.23523610444E+02 0.33685554447E+02 0.49035106496E+02 0.72120632733E+02
 0.10560853021E+03 0.15429226468E+03 0.22035120309E+03 0.29778176688E+03 0.37396343487E+03
 0.43564846577E+03 0.47442794429E+03 0.48745675033E+03 0.47442794429E+03 0.43564846577E+03
 0.37396343487E+03 0.29778176688E+03 0.22035120309E+03 0.15429226468E+03 0.10560853021E+03
 0.72120632733E+02 0.49035106496E+02 0.33685554447E+02 0.23523610444E+02 0.16596269481E+02
 0.11708772515E+02 0.82382984557E+01 0.58341645671E+01 0.42088162965E+01 0.31066561211E+01
 0.23451055620E+01 0.18093899038E+01 0.14230040805E+01 0.11475994728E+01 0.97845592372E+00
 0.90413569373E+00 0.51241704054E+00 0.53338635085E+00 0.62281893412E+00 0.82134211420E+00
 0.11370674722E+01 0.15716959750E+01 0.21687281991E+01 0.30136330855E+01 0.42284136561E+01
 0.60063955237E+01 0.86235198857E+01 0.12399193443E+02 0.17746578858E+02 0.25430852033E+02
 0.36922828800E+02 0.54596859736E+02 0.81461378828E+02 0.12136666559E+03 0.18079025809E+03
 0.26045473744E+03 0.35082910671E+03 0.43564846577E+03 0.50039887756E+03 0.53865871267E+03
 0.55096739760E+03 0.53865871267E+03 0.50039887756E+03 0.43564846577E+03 0.35082910671E+03
 0.26045473744E+03 0.18079025809E+03 0.12136666559E+03 0.81461378828E+02 0.54596859736E+02
 0.36922828800E+02 0.25430852033E+02 0.17746578858E+02 0.12399193443E+02 0.86235198857E+01
 0.60063955237E+01 0.42284136561E+01 0.30136330855E+01 0.21687281991E+01 0.15716959750E+01
 0.11370674722E+01 0.82134211420E+00 0.62281893412E+00 0.53338635085E+00 0.31500505202E+00
 0.33785005636E+00 0.43513362191E+00 0.64975801485E+00 0.98776754782E+00 0.14491086056E+01
 0.20810916525E+01 0.29752719495E+01 0.42580340851E+01 0.61291914702E+01 0.88780884454E+01
 0.12846624679E+02 0.18493180035E+02 0.26684366983E+02 0.39084385701E+02 0.58355983132E+02
 0.87811096068E+02 0.13243690032E+03 0.19938100121E+03 0.28795971798E+03 0.38589772647E+03
 0.47442794429E+03 0.53865871267E+03 0.57440673934E+03 0.58538498401E+03 0.57440673934E+03
 0.53865871267E+03 0.47442794429E+03 0.38589772647E+03 0.28795971798E+03 0.19938100121E+03
 0.13243690032E+03 0.87811096068E+02 0.58355983132E+02 0.39084385701E+02 0.26684366983E+02
 0.18493180035E+02 0.12846624679E+02 0.88780884454E+01 0.61291914702E+01 0.42580340851E+01
 0.29752719495E+01 0.20810916525E+01 0.14491086056E+01 0.98776754782E+00 0.64975801485E+00
 0.43513362191E+00 0.33785005636E+00 0.25365996367E+00 0.27704564861E+00 0.37674995438E+00
 0.59650309073E+00 0.94164329418E+00 0.14115368627E+01 0.20548872491E+01 0.29653963246E+01
 0.42709048090E+01 0.61733900683E+01 0.89668961468E+01 0.13001479225E+02 0.18752069281E+02
 0.27122104519E+02 0.39845398423E+02 0.59687162629E+02 0.90072743207E+02 0.13643616770E+03
 0.20607089678E+03 0.29771821856E+03 0.39806500066E+03 0.48745675033E+03 0.55096739760E+03
 0.58538498401E+03 0.59572088032E+03 0.58538498401E+03 0.55096739760E+03 0.48745675033E+03
 0.39806500066E+03 0.29771821856E+03 0.20607089678E+03 0.13643616770E+03 0.90072743207E+02
 0.59687162629E+02 0.39845398423E+02 0.27122104519E+02 0.18752069281E+02 0.13001479225E+02
 0.89668961468E+01 0.61733900683E+01 0.42709048090E+01 0.29653963246E+01 0.20548872491E+01
 0.14115368627E+01 0.94164329418E+00 0.59650309073E+00 0.37674995438E+00 0.27704564861E+00
 0.31500505202E+00 0.33785005636E+00 0.43513362191E+00 0.64975801485E+00 0.98776754782E+00
 0.14491086056E+01 0.20810916525E+01 0.29752719495E+01 0.42580340851E+01 0.61291914702E+01
 0.88780884454E+01 0.12846624679E+02 0.18493180035E+02 0.26684366983E+02 0.39084385701E+02
 0.58355983132E+02 0.87811096068E+02 0.13243690032E+03 0.19938100121E+03 0.28795971798E+03
 0.38589772647E+03 0.47442794429E+03 0.53865871267E+03 0.57440673934E+03 0.58538498401E+03
 0.57440673934E+03 0.53865871267E+03 0.47442794429E+03 0.38589772647E+03 0.28795971798E+03
 0.19938100121E+03 0.13243690032E+03 0.87811096068E+02 0.58355983132E+02 0.39084385701E+02
 0.26684366983E+02 0.18493180035E+02 0.12846624679E+02 0.88780884454E+01 0.61291914702E+01
 0.42580340851E+01 0.29752719495E+01 0.20810916525E+01 0.14491086056E+01 0.98776754782E+00
 0.64975801485E+00 0.43513362191E+00 0.33785005636E+00 0.51241704054E+00 0.53338635085E+00
 0.62281893412E+00 0.82134211420E+00 0.11370674722E+01 0.15716959750E+01 0.21687281991E+01
 0.30136330855E+01 0.42284136561E+01 0.60063955237E+01 0.86235198857E+01 0.12399193443E+02
 0.17746578858E+02 0.25430852033E+02 0.36922828800E+02 0.54596859736E+02 0.81461378828E+02
 0.12136666559E+03 0.18079025809E+03 0.26045473744E+03 0.35082910671E+03 0.43564846577E+03
 0.50039887756E+03 0.53865871267E+03 0.55096739760E+03 0.53865871267E+03 0.50039887756E+03
 0.43564846577E+03 0.35082910671E+03 0.26045473744E+03 0.18079025809E+03 0.12136666559E+03
 0.81461378828E+02 0.54596859736E+02 0.36922828800E+02 0.25430852033E+02 0.17746578858E+02
 0.12399193443E+02 0.86235198857E+01 0.60063955237E+01 0.42284136561E+01 0.30136330855E+01
 0.21687281991E+01 0.15716959750E+01 0.11370674722E+01 0.82134211420E+00 0.62281893412E+00
 0.53338635085E+00 0.88714544996E+00 0.90413569373E+00 0.97845592372E+00 0.11475994728E+01
 0.14230040805E+01 0.18093899038E+01 0.23451055620E+01 0.31066561211E+01 0.42088162965E+01
 0.58341645671E+01 0.82382984557E+01 0.11708772515E+02 0.16596269481E+02 0.23523610444E+02
 0.33685554447E+02 0.49035106496E+02 0.72120632733E+02 0.10560853021E+03 0.15429226468E+03
 0.22035120309E+03 0.29778176688E+03 0.37396343487E+03 0.43564846577E+03 0.47442794429E+03
 0.48745675033E+03 0.47442794429E+03 0.43564846577E+03 0.37396343487E+03 0.29778176688E+03
 0.22035120309E+03 0.15429226468E+03 0.10560853021E+03 0.72120632733E+02 0.49035106496E+02
 0.33685554447E+02 0.23523610444E+02 0.16596269481E+02 0.11708772515E+02 0.82382984557E+01
 0.58341645671E+01 0.42088162965E+01 0.31066561211E+01 0.23451055620E+01 0.18093899038E+01
 0.14230040805E+01 0.11475994728E+01 0.97845592372E+00 0.90413569373E+00 0.15130927948E+01
 0.15226534479E+01 0.15712301080E+01 0.16932104786E+01 0.19046257797E+01 0.22147923132E+01
 0.26572625287E+01 0.32984558343E+01 0.42435346533E+01 0.56603651036E+01 0.77793628178E+01
 0.10852557725E+02 0.15164570679E+02 0.21184767220E+02 0.29802582874E+02 0.42491175217E+02
 0.61231894317E+02 0.87967744707E+02 0.12507546192E+03 0.17520749725E+03 0.23562756136E+03
 0.29778176688E+03 0.35082910671E+03 0.38589772647E+03 0.39806500066E+03 0.38589772647E+03
 0.35082910671E+03 0.29778176688E+03 0.23562756136E+03 0.17520749725E+03 0.12507546192E+03
 0.87967744707E+02 0.61231894317E+02 0.42491175217E+02 0.29802582874E+02 0.21184767220E+02
 0.15164570679E+02 0.10852557725E+02 0.77793628178E+01 0.56603651036E+01 0.42435346533E+01
 0.32984558343E+01 0.26572625287E+01 0.22147923132E+01 0.19046257797E+01 0.16932104786E+01
 0.15712301080E+01 0.15226534479E+01 0.25087524244E+01 0.25053125095E+01 0.25119018855E+01
 0.25609510934E+01 0.26747284115E+01 0.28694961492E+01 0.31766081859E+01 0.36536844740E+01
 0.43950677078E+01 0.55507493380E+01 0.73229763129E+01 0.99286974937E+01 0.13593715831E+02
 0.18649141610E+02 0.25699880790E+02 0.35757008655E+02 0.50217182525E+02 0.70539054868E+02
 0.97615003444E+02 0.13267774947E+03 0.17520749725E+03 0.22035120309E+03 0.26045473744E+03
 0.28795971798E+03 0.29771821856E+03 0.28795971798E+03 0.26045473744E+03 0.22035120309E+03
 0.17520749725E+03 0.13267774947E+03 0.97615003444E+02 0.70539054868E+02 0.50217182525E+02
 0.35757008655E+02 0.25699880790E+02 0.18649141610E+02 0.13593715831E+02 0.99286974937E+01
 0.73229763129E+01 0.55507493380E+01 0.43950677078E+01 0.36536844740E+01 0.31766081859E+01
 0.28694961492E+01 0.26747284115E+01 0.25609510934E+01 0.25119018855E+01 0.25053125095E+01
 0.40595107303E+01 0.40342626022E+01 0.39736329769E+01 0.39105485093E+01 0.38761600581E+01
 0.38975258266E+01 0.40091756019E+01 0.42642601030E+01 0.47472484362E+01 0.55887203901E+01
 0.69613049406E+01 0.90488537585E+01 0.12030365705E+02 0.16129640360E+02 0.21722253250E+02
 0.29432926082E+02 0.40142284269E+02 0.54811935763E+02 0.74048277703E+02 0.97615003444E+02
 0.12507546192E+03 0.15429226468E+03 0.18079025809E+03 0.19938100121E+03 0.20607089678E+03
 0.19938100121E+03 0.18079025809E+03 0.15429226468E+03 0.12507546192E+03 0.97615003444E+02
 0.74048277703E+02 0.54811935763E+02 0.40142284269E+02 0.29432926082E+02 0.21722253250E+02
 0.16129640360E+02 0.12030365705E+02 0.90488537585E+01 0.69613049406E+01 0.55887203901E+01
 0.47472484362E+01 0.42642601030E+01 0.40091756019E+01 0.38975258266E+01 0.38761600581E+01
 0.39105485093E+01 0.39736329769E+01 0.40342626022E+01 0.64495438876E+01 0.63889119624E+01
 0.62221603299E+01 0.59866171929E+01 0.57267265320E+01 0.54865817678E+01 0.53126128923E+01
 0.52615560269E+01 0.54122581929E+01 0.58770492920E+01 0.67991317301E+01 0.83308212792E+01
 0.10614922293E+02 0.13801619081E+02 0.18105409151E+02 0.23868221349E+02 0.31575697711E+02
 0.41769308705E+02 0.54811935763E+02 0.70539054868E+02 0.87967744707E+02 0.10560853021E+03
 0.12136666559E+03 0.13243690032E+03 0.13643616770E+03 0.13243690032E+03 0.12136666559E+03
 0.10560853021E+03 0.87967744707E+02 0.70539054868E+02 0.54811935763E+02 0.41769308705E+02
 0.31575697711E+02 0.23868221349E+02 0.18105409151E+02 0.13801619081E+02 0.10614922293E+02
 0.83308212792E+01 0.67991317301E+01 0.58770492920E+01 0.54122581929E+01 0.52615560269E+01
 0.53126128923E+01 0.54865817678E+01 0.57267265320E+01 0.59866171929E+01 0.62221603299E+01
 0.63889119624E+01 0.10094498541E+02 0.99783250984E+01 0.96473395915E+01 0.91487480256E+01
 0.85471548936E+01 0.79130998281E+01 0.73174691113E+01 0.68330326037E+01 0.65417915649E+01
 0.65429147169E+01 0.69526737179E+01 0.78925676797E+01 0.94747238357E+01 0.11801506127E+02
 0.14987785600E+02 0.19194282427E+02 0.24642514920E+02 0.31575697711E+02 0.40142284269E+02
 0.50217182525E+02 0.61231894317E+02 0.72120632733E+02 0.81461378828E+02 0.87811096068E+02
 0.90072743207E+02 0.87811096068E+02 0.81461378828E+02 0.72120632733E+02 0.61231894317E+02
 0.50217182525E+02 0.40142284269E+02 0.31575697711E+02 0.24642514920E+02 0.19194282427E+02
 0.14987785600E+02 0.11801506127E+02 0.94747238357E+01 0.78925676797E+01 0.69526737179E+01
 0.65429147169E+01 0.65417915649E+01 0.68330326037E+01 0.73174691113E+01 0.79130998281E+01
 0.85471548936E+01 0.91487480256E+01 0.96473395915E+01 0.99783250984E+01 0.15555058034E+02
 0.15355067016E+02 0.14777823289E+02 0.13887439087E+02 0.12778279762E+02 0.11560144537E+02
 0.10344776780E+02 0.92381626471E+01 0.83398067490E+01 0.77460210786E+01 0.75520814191E+01
 0.78496226495E+01 0.87203049220E+01 0.10231547738E+02 0.12440492104E+02 0.15405594436E+02
 0.19194282427E+02 0.23868221349E+02 0.29432926082E+02 0.35757008655E+02 0.42491175217E+02
 0.49035106496E+02 0.54596859736E+02 0.58355983132E+02 0.59687162629E+02 0.58355983132E+02
 0.54596859736E+02 0.49035106496E+02 0.42491175217E+02 0.35757008655E+02 0.29432926082E+02
 0.23868221349E+02 0.19194282427E+02 0.15405594436E+02 0.12440492104E+02 0.10231547738E+02