   6   6   0   0
  0.1227757E+02  0.4192000E-09  0.4192000E-09  0.4192000E-09  0.5000000E-15
  1.000000000000000E-004
  CAR 
 unknown system                          
     28.11488512    -48.36197417  301      5.74897510      1.00000000
    -48.362  0.0000E+00  0.0000E+00
    -48.107  0.0000E+00  0.0000E+00
    -47.852  0.0000E+00  0.0000E+00
    -47.597  0.0000E+00  0.0000E+00
    -47.342  0.0000E+00  0.0000E+00
    -47.087  0.0000E+00  0.0000E+00
    -46.832  0.0000E+00  0.0000E+00
    -46.578 -0.1577E-29 -0.4021E-30
    -46.323 -0.6114E-21 -0.1559E-21
    -46.068 -0.8470E-14 -0.2159E-14
    -45.813 -0.4581E-08 -0.1168E-08
    -45.558 -0.8487E-04 -0.2164E-04
    -45.303 -0.4700E-01 -0.1200E-01
    -45.048  0.1033E+00  0.1432E-01
    -44.793  0.6608E+01  0.1699E+01
    -44.538  0.1314E+01  0.2034E+01
    -44.283 -0.1321E+00  0.2000E+01
    -44.028 -0.6822E-03  0.2000E+01
    -43.773 -0.9347E-07  0.2000E+01
    -43.518 -0.4390E-12  0.2000E+01
    -43.264  0.0000E+00  0.2000E+01
    -43.009  0.0000E+00  0.2000E+01
    -42.754  0.0000E+00  0.2000E+01
    -42.499  0.0000E+00  0.2000E+01
    -42.244  0.0000E+00  0.2000E+01
    -41.989  0.0000E+00  0.2000E+01
    -41.734  0.0000E+00  0.2000E+01
    -41.479  0.0000E+00  0.2000E+01
    -41.224  0.0000E+00  0.2000E+01
    -40.969  0.0000E+00  0.2000E+01
    -40.714  0.0000E+00  0.2000E+01
    -40.459  0.0000E+00  0.2000E+01
    -40.204  0.0000E+00  0.2000E+01
    -39.950  0.0000E+00  0.2000E+01
    -39.695  0.0000E+00  0.2000E+01
    -39.440  0.0000E+00  0.2000E+01
    -39.185  0.0000E+00  0.2000E+01
    -38.930  0.0000E+00  0.2000E+01
    -38.675  0.0000E+00  0.2000E+01
    -38.420  0.0000E+00  0.2000E+01
    -38.165  0.0000E+00  0.2000E+01
    -37.910  0.0000E+00  0.2000E+01
    -37.655  0.0000E+00  0.2000E+01
    -37.400  0.0000E+00  0.2000E+01
    -37.145  0.0000E+00  0.2000E+01
    -36.890  0.0000E+00  0.2000E+01
    -36.636  0.0000E+00  0.2000E+01
    -36.381  0.0000E+00  0.2000E+01
    -36.126  0.0000E+00  0.2000E+01
    -35.871  0.0000E+00  0.2000E+01
    -35.616  0.0000E+00  0.2000E+01
    -35.361  0.0000E+00  0.2000E+01
    -35.106  0.0000E+00  0.2000E+01
    -34.851  0.0000E+00  0.2000E+01
    -34.596  0.0000E+00  0.2000E+01
    -34.341  0.0000E+00  0.2000E+01
    -34.086  0.0000E+00  0.2000E+01
    -33.831  0.0000E+00  0.2000E+01
    -33.576  0.0000E+00  0.2000E+01
    -33.322  0.0000E+00  0.2000E+01
    -33.067  0.0000E+00  0.2000E+01
    -32.812  0.0000E+00  0.2000E+01
    -32.557  0.0000E+00  0.2000E+01
    -32.302  0.0000E+00  0.2000E+01
    -32.047  0.0000E+00  0.2000E+01
    -31.792  0.0000E+00  0.2000E+01
    -31.537  0.0000E+00  0.2000E+01
    -31.282  0.0000E+00  0.2000E+01
    -31.027  0.0000E+00  0.2000E+01
    -30.772  0.0000E+00  0.2000E+01
    -30.517  0.0000E+00  0.2000E+01
    -30.262  0.0000E+00  0.2000E+01
    -30.008  0.0000E+00  0.2000E+01
    -29.753  0.0000E+00  0.2000E+01
    -29.498  0.0000E+00  0.2000E+01
    -29.243  0.0000E+00  0.2000E+01
    -28.988  0.0000E+00  0.2000E+01
    -28.733  0.0000E+00  0.2000E+01
    -28.478  0.0000E+00  0.2000E+01
    -28.223  0.0000E+00  0.2000E+01
    -27.968  0.0000E+00  0.2000E+01
    -27.713  0.0000E+00  0.2000E+01
    -27.458  0.0000E+00  0.2000E+01
    -27.203  0.0000E+00  0.2000E+01
    -26.948 -0.1967E-35  0.2000E+01
    -26.694 -0.5558E-26  0.2000E+01
    -26.439 -0.5936E-18  0.2000E+01
    -26.184 -0.2291E-11  0.2000E+01
    -25.929 -0.3272E-06  0.2000E+01
    -25.674 -0.1576E-02  0.2000E+01
    -25.419 -0.1850E+00  0.1952E+01
    -25.164  0.2157E+01  0.2502E+01
    -24.909  0.6040E+01  0.4042E+01
    -24.654 -0.1384E+00  0.4007E+01
    -24.399 -0.2683E-01  0.4000E+01
    -24.144 -0.3111E-04  0.4000E+01
    -23.889 -0.1116E-08  0.4000E+01
    -23.634 -0.1744E-14  0.4000E+01
    -23.380 -0.7951E-11  0.4000E+01
    -23.125 -0.9903E-06  0.4000E+01
    -22.870 -0.4138E-02  0.3999E+01
    -22.615 -0.4068E+00  0.3895E+01
    -22.360  0.4957E+01  0.5159E+01
    -22.105  0.1157E+02  0.8107E+01
    -21.850 -0.3886E+00  0.8008E+01
    -21.595 -0.3048E+00  0.7930E+01
    -21.340  0.4939E+01  0.9189E+01
    -21.085  0.3432E+01  0.1006E+02
    -20.830 -0.2485E+00  0.1000E+02
    -20.575 -0.4273E-02  0.1000E+02
    -20.320 -0.1520E-05  0.1000E+02
    -20.066 -0.1787E-10  0.1000E+02
    -19.811  0.0000E+00  0.1000E+02
    -19.556  0.0000E+00  0.1000E+02
    -19.301  0.0000E+00  0.1000E+02
    -19.046  0.0000E+00  0.1000E+02
    -18.791  0.0000E+00  0.1000E+02
    -18.536  0.0000E+00  0.1000E+02
    -18.281  0.0000E+00  0.1000E+02
    -18.026  0.0000E+00  0.1000E+02
    -17.771  0.0000E+00  0.1000E+02
    -17.516  0.0000E+00  0.1000E+02
    -17.261  0.0000E+00  0.1000E+02
    -17.006  0.0000E+00  0.1000E+02
    -16.752 -0.4071E-27  0.1000E+02
    -16.497 -0.6628E-19  0.1000E+02
    -16.242 -0.3915E-12  0.1000E+02
    -15.987 -0.8583E-07  0.1000E+02
    -15.732 -0.6440E-03  0.1000E+02
    -15.477 -0.1288E+00  0.9967E+01
    -15.222  0.1264E+01  0.1029E+02
    -14.967  0.6634E+01  0.1198E+02
    -14.712  0.1251E+00  0.1201E+02
    -14.457 -0.4868E-01  0.1200E+02
    -14.202 -0.9057E-04  0.1200E+02
    -13.947 -0.5024E-08  0.1200E+02
    -13.692 -0.1045E-13  0.1200E+02
    -13.438  0.0000E+00  0.1200E+02
    -13.183  0.0000E+00  0.1200E+02
    -12.928  0.0000E+00  0.1200E+02
    -12.673  0.0000E+00  0.1200E+02
    -12.418  0.0000E+00  0.1200E+02
    -12.163 -0.2638E-31  0.1200E+02
    -11.908 -0.1895E-22  0.1200E+02
    -11.653 -0.5125E-15  0.1200E+02
    -11.398 -0.4935E-09  0.1200E+02
    -11.143 -0.1730E-04  0.1200E+02
    -10.888 -0.1908E-01  0.1200E+02
    -10.633 -0.2263E+00  0.1194E+02
    -10.378  0.5341E+01  0.1330E+02
    -10.124  0.7723E+01  0.1527E+02
     -9.869  0.3124E+01  0.1606E+02
     -9.614 -0.2474E+00  0.1600E+02
     -9.359 -0.3996E-02  0.1600E+02
     -9.104 -0.1369E-05  0.1600E+02
     -8.849 -0.1551E-10  0.1600E+02
     -8.594  0.0000E+00  0.1600E+02
     -8.339 -0.4583E-32  0.1600E+02
     -8.084 -0.4719E-23  0.1600E+02
     -7.829 -0.1832E-15  0.1600E+02
     -7.574 -0.2543E-09  0.1600E+02
     -7.319 -0.1291E-04  0.1600E+02
     -7.064 -0.2113E-01  0.1599E+02
     -6.810 -0.5552E+00  0.1585E+02
     -6.555  0.9320E+01  0.1823E+02
     -6.300  0.1310E+02  0.2157E+02
     -6.045  0.1904E+01  0.2205E+02
     -5.790 -0.2097E+00  0.2200E+02
     -5.535 -0.1967E-02  0.2200E+02
     -5.280 -0.4571E-06  0.2200E+02
     -5.025 -0.3575E-11  0.2200E+02
     -4.770  0.0000E+00  0.2200E+02
     -4.515  0.0000E+00  0.2200E+02
     -4.260  0.0000E+00  0.2200E+02
     -4.005  0.0000E+00  0.2200E+02
     -3.750  0.0000E+00  0.2200E+02
     -3.496  0.0000E+00  0.2200E+02
     -3.241  0.0000E+00  0.2200E+02
     -2.986  0.0000E+00  0.2200E+02
     -2.731  0.0000E+00  0.2200E+02
     -2.476 -0.3197E-27  0.2200E+02
     -2.221 -0.5409E-19  0.2200E+02
     -1.966 -0.3320E-12  0.2200E+02
     -1.711 -0.7574E-07  0.2200E+02
     -1.456 -0.5917E-03  0.2200E+02
     -1.201 -0.1240E+00  0.2197E+02
     -0.946  0.1193E+01  0.2227E+02
     -0.691  0.6670E+01  0.2397E+02
     -0.436  0.1584E+00  0.2401E+02
     -0.182 -0.5123E-01  0.2400E+02
      0.073 -0.9958E-04  0.2400E+02
      0.328 -0.5748E-08  0.2400E+02
      0.583 -0.6671E-13  0.2400E+02
      0.838 -0.2230E-07  0.2400E+02
      1.093 -0.3167E-03  0.2400E+02
      1.348 -0.1308E+00  0.2397E+02
      1.603  0.6986E+00  0.2414E+02
      1.858  0.1360E+02  0.2761E+02
      2.113  0.1730E+01  0.2805E+02
      2.368 -0.2036E+00  0.2800E+02
      2.623 -0.7713E-03  0.2800E+02
      2.878 -0.8082E-07  0.2800E+02
      3.132 -0.2893E-12  0.2800E+02
      3.387 -0.2043E-09  0.2800E+02
      3.642 -0.1102E-04  0.2800E+02
      3.897 -0.1934E-01  0.2800E+02
      4.152 -0.6127E+00  0.2784E+02
      4.407  0.9529E+01  0.3027E+02
      4.662  0.1612E+02  0.3438E+02
      4.917  0.6539E+01  0.3604E+02
      5.172 -0.3825E+00  0.3595E+02
      5.427  0.2147E+01  0.3649E+02
      5.682  0.1416E+02  0.4010E+02
      5.937  0.1398E+02  0.4367E+02
      6.192  0.1496E+01  0.4405E+02
      6.446 -0.3872E+00  0.4395E+02
      6.701  0.2073E+01  0.4448E+02
      6.956  0.8044E+01  0.4653E+02
      7.211  0.5944E+01  0.4805E+02
      7.466 -0.1489E+00  0.4801E+02
      7.721 -0.2823E-01  0.4800E+02
      7.976 -0.4021E-04  0.4800E+02
      8.231 -0.1045E-01  0.4800E+02
      8.486 -0.3156E+00  0.4792E+02
      8.741  0.4850E+01  0.4915E+02
      8.996  0.1030E+02  0.5178E+02
      9.251  0.1003E+01  0.5203E+02
      9.506 -0.1335E+00  0.5200E+02
      9.760 -0.2615E-02  0.5200E+02
     10.015 -0.2002E+00  0.5195E+02
     10.270  0.2420E+01  0.5257E+02
     10.525  0.5790E+01  0.5404E+02
     10.780 -0.1599E+00  0.5400E+02
     11.035  0.6459E+01  0.5565E+02
     11.290  0.1531E+01  0.5604E+02
     11.545 -0.1469E+00  0.5600E+02
     11.800 -0.1476E+00  0.5596E+02
     12.055  0.8466E+00  0.5618E+02
     12.310  0.1420E+02  0.5980E+02
     12.565  0.9236E+01  0.6215E+02
     12.820 -0.5827E+00  0.6200E+02
     13.074 -0.1886E-01  0.6200E+02
     13.329 -0.1068E-04  0.6200E+02
     13.584 -0.1961E-09  0.6200E+02
     13.839  0.0000E+00  0.6200E+02
     14.094  0.0000E+00  0.6200E+02
     14.349  0.0000E+00  0.6200E+02
     14.604  0.0000E+00  0.6200E+02
     14.859  0.0000E+00  0.6200E+02
     15.114  0.0000E+00  0.6200E+02
     15.369  0.0000E+00  0.6200E+02
     15.624  0.0000E+00  0.6200E+02
     15.879  0.0000E+00  0.6200E+02
     16.134  0.0000E+00  0.6200E+02
     16.388  0.0000E+00  0.6200E+02
     16.643  0.0000E+00  0.6200E+02
     16.898  0.0000E+00  0.6200E+02
     17.153 -0.4604E-28  0.6200E+02
     17.408 -0.1058E-19  0.6200E+02
     17.663 -0.8860E-13  0.6200E+02
     17.918 -0.2755E-07  0.6200E+02
     18.173 -0.2964E-03  0.6200E+02
     18.428 -0.8969E-01  0.6198E+02
     18.683  0.6903E+00  0.6215E+02
     18.938  0.6834E+01  0.6390E+02
     19.193  0.1723E+00  0.6394E+02
     19.448  0.2636E+01  0.6461E+02
     19.702  0.2033E+02  0.6979E+02
     19.957  0.1004E+01  0.7005E+02
     20.212 -0.1928E+00  0.7000E+02
     20.467 -0.4671E-03  0.7000E+02
     20.722 -0.4508E-03  0.7000E+02
     20.977 -0.1095E+00  0.6997E+02
     21.232  0.9782E+00  0.7022E+02
     21.487  0.6762E+01  0.7195E+02
     21.742  0.2754E+00  0.7202E+02
     21.997 -0.5999E-01  0.7200E+02
     22.252 -0.1341E-03  0.7200E+02
     22.507 -0.9772E-08  0.7200E+02
     22.762 -0.3459E-04  0.7200E+02
     23.016 -0.3876E-01  0.7199E+02
     23.271 -0.5586E+00  0.7185E+02
     23.526  0.1249E+02  0.7503E+02
     23.781  0.1202E+02  0.7809E+02
     24.036 -0.3206E+00  0.7801E+02
     24.291 -0.1846E+00  0.7797E+02
     24.546  0.1314E+01  0.7830E+02
     24.801  0.6608E+01  0.7999E+02
     25.056  0.1033E+00  0.8001E+02
     25.311 -0.4700E-01  0.8000E+02
     25.566 -0.8487E-04  0.8000E+02
     25.821 -0.4581E-08  0.8000E+02
     26.076 -0.8710E-14  0.8000E+02
     26.330  0.0000E+00  0.8000E+02
     26.585  0.0000E+00  0.8000E+02
     26.840  0.0000E+00  0.8000E+02
     27.095  0.0000E+00  0.8000E+02
     27.350  0.0000E+00  0.8000E+02
     27.605  0.0000E+00  0.8000E+02
     27.860  0.0000E+00  0.8000E+02
     28.115  0.0000E+00  0.8000E+02
