    6    6    1    1
  0.1227757E+02  0.4192000E-09  0.4192000E-09  0.4192000E-09  0.5000000E-15
  1.000000000000000E-004
  CAR 
 unknown system                          
     41      1     40
 
  0.0000000E+00  0.0000000E+00  0.0000000E+00  0.1000000E+01
      1        -44.885753   1.000000
      2        -25.102014   1.000000
      3        -22.308297   1.000000
      4        -22.308297   1.000000
      5        -21.362697   1.000000
      6        -15.127257   1.000000
      7        -10.423154   1.000000
      8        -10.148858   1.000000
      9         -6.571264   1.000000
     10         -6.571264   1.000000
     11         -6.353271   1.000000
     12         -0.848581   1.000000
     13          1.745213   1.000000
     14          1.745213   1.000000
     15          4.394873   1.000000
     16          4.394873   1.000000
     17          4.540893   1.000000
     18          4.739258   1.000000
     19          5.525879   1.033333
     20          5.525879   1.033333
     21          5.820816   0.216667
     22          5.820816   0.216667
     23          6.760151  -0.000000
     24          7.020870  -0.000000
     25          8.724945  -0.000000
     26          8.900736  -0.000000
     27         10.323681   0.000000
     28         10.950880   0.000000
     29         12.145276   0.000000
     30         12.321025   0.000000
     31         12.321025   0.000000
     32         18.804302   0.000000
     33         19.546712   0.000000
     34         19.564550   0.000000
     35         19.564550   0.000000
     36         21.339212   0.000000
     37         23.481665   0.000000
     38         23.481665   0.000000
     39         23.619671   0.000000
     40         24.638664   0.000000
