 vasp.6.4.3 19Mar24 (build Jul 09 2024 15:45:28) complex                        
  
 executed on             LinuxIFC date 2024.10.30  14:49:31
 running   40 mpi-ranks, on    1 nodes
 distrk:  each k-point on   40 cores,    1 groups
 distr:  one band on NCORE=   1 cores,   40 groups


--------------------------------------------------------------------------------------------------------


 INCAR:
   GGA = PE
   PREC = normal
   IBRION = -1
   NSW = 0

 POTCAR:    PAW_PBE Ba_sv 06Sep2000               
 POTCAR:    PAW_PBE Zr_sv 04Jan2005               
 POTCAR:    PAW_PBE O 08Apr2002                   
 POTCAR:    PAW_PBE H 15Jun2001                   
 -----------------------------------------------------------------------------
|                                                                             |
|           W    W    AA    RRRRR   N    N  II  N    N   GGGG   !!!           |
|           W    W   A  A   R    R  NN   N  II  NN   N  G    G  !!!           |
|           W    W  A    A  R    R  N N  N  II  N N  N  G       !!!           |
|           W WW W  AAAAAA  RRRRR   N  N N  II  N  N N  G  GGG   !            |
|           WW  WW  A    A  R   R   N   NN  II  N   NN  G    G                |
|           W    W  A    A  R    R  N    N  II  N    N   GGGG   !!!           |
|                                                                             |
|     For optimal performance we recommend to set                             |
|       NCORE = 2 up to number-of-cores-per-socket                            |
|     NCORE specifies how many cores store one orbital (NPAR=cpu/NCORE).      |
|     This setting can greatly improve the performance of VASP for DFT.       |
|     The default, NCORE=1 might be grossly inefficient on modern             |
|     multi-core architectures or massively parallel machines. Do your        |
|     own testing! More info at https://www.vasp.at/wiki/index.php/NCORE      |
|     Unfortunately you need to use the default for GW and RPA                |
|     calculations (for HF NCORE is supported but not extensively tested      |
|     yet).                                                                   |
|                                                                             |
 -----------------------------------------------------------------------------

 POTCAR:    PAW_PBE Ba_sv 06Sep2000               
   SHA256 =  db99e82e473f9273fc04f241d4a23dc413358649e2d1724098d22351b75b003b Ba_sv/POTCAR          
   COPYR  = (c) Copyright 06Sep2000 Georg Kresse                                                    
   COPYR  = This file is part of the software VASP. Any use, copying, and all other rights are regul
   COPYR  = If you do not have a valid VASP license, you may not use, copy or distribute this file. 
   VRHFIN =Ba: 5s5p6s                                                                               
   LEXCH  = PE                                                                                      
   EATOM  =   700.8560 eV,   51.5115 Ry                                                             
                                                                                                    
   TITEL  = PAW_PBE Ba_sv 06Sep2000                                                                 
   LULTRA =        F    use ultrasoft PP ?                                                          
   IUNSCR =        1    unscreen: 0-lin 1-nonlin 2-no                                               
   RPACOR =    2.400    partial core radius                                                         
   POMASS =  137.327; ZVAL   =   10.000    mass and valenz                                          
   RCORE  =    2.800    outmost cutoff radius                                                       
   RWIGS  =    3.740; RWIGS  =    1.979    wigner-seitz radius (au A)                               
   ENMAX  =  187.181; ENMIN  =  140.386 eV                                                          
   RCLOC  =    2.516    cutoff for local pot                                                        
   LCOR   =        T    correct aug charges                                                         
   LPAW   =        T    paw PP                                                                      
   EAUG   =  351.165                                                                                
   DEXC   =    0.000                                                                                
   RMAX   =    2.865    core radius for proj-oper                                                   
   RAUG   =    1.300    factor for augmentation sphere                                              
   RDEP   =    2.976    radius for radial grids                                                     
   RDEPT  =    2.289    core radius for aug-charge                                                  
                                                                                                    
   Atomic configuration                                                                             
   13 entries                                                                                       
     n  l   j            E        occ.                                                              
     1  0  0.50    -37249.5946   2.0000                                                             
     2  0  0.50     -5887.1925   2.0000                                                             
     2  1  1.50     -5278.3977   6.0000                                                             
     3  0  0.50     -1242.7293   2.0000                                                             
     3  1  1.50     -1047.6609   6.0000                                                             
     3  2  2.50      -764.6158  10.0000                                                             
     4  0  0.50      -243.8228   2.0000                                                             
     4  1  1.50      -180.9218   6.0000                                                             
     4  2  2.50       -89.6477  10.0000                                                             
     5  0  0.50       -33.6549   2.0000                                                             
     6  0  0.50        -3.2247   1.9900                                                             
     5  1  1.50       -18.7193   6.0000                                                             
     5  2  2.50        -2.0115   0.0100                                                             
   Description                                                                                      
     l       E           TYP  RCUT    TYP  RCUT                                                     
     0    -33.6549039     23  2.800                                                                 
     0     -3.2246942     23  2.800                                                                 
     1    -18.7193050     23  2.700                                                                 
     1     27.2116520     23  2.700                                                                 
     2     -2.0115002     23  2.700                                                                 
     2      0.3057420     23  2.700                                                                 
  local pseudopotential read in
  partial core-charges read in
  partial kinetic energy density read in
  atomic valenz-charges read in
  non local Contribution for L=           0  read in
    real space projection operators read in
  non local Contribution for L=           0  read in
    real space projection operators read in
  non local Contribution for L=           1  read in
    real space projection operators read in
  non local Contribution for L=           1  read in
    real space projection operators read in
  non local Contribution for L=           2  read in
    real space projection operators read in
  non local Contribution for L=           2  read in
    real space projection operators read in
    PAW grid and wavefunctions read in
 
   number of l-projection  operators is LMAX  =           6
   number of lm-projection operators is LMMAX =          18
 
 POTCAR:    PAW_PBE Zr_sv 04Jan2005               
   SHA256 =  25aed69cb10325f9d37c5c68912b61a17387d1f8e4f1d804860ffa10c8a4bf76 Zr_sv/POTCAR          
   COPYR  = (c) Copyright 04Jan2005 Georg Kresse                                                    
   COPYR  = This file is part of the software VASP. Any use, copying, and all other rights are regul
   COPYR  = If you do not have a valid VASP license, you may not use, copy or distribute this file. 
   VRHFIN =Zr: 4s4p5s4d                                                                             
   LEXCH  = PE                                                                                      
   EATOM  =  1284.2219 eV,   94.3876 Ry                                                             
                                                                                                    
   TITEL  = PAW_PBE Zr_sv 04Jan2005                                                                 
   LULTRA =        F    use ultrasoft PP ?                                                          
   IUNSCR =        1    unscreen: 0-lin 1-nonlin 2-no                                               
   RPACOR =    2.200    partial core radius                                                         
   POMASS =   91.224; ZVAL   =   12.000    mass and valenz                                          
   RCORE  =    2.500    outmost cutoff radius                                                       
   RWIGS  =    3.070; RWIGS  =    1.625    wigner-seitz radius (au A)                               
   ENMAX  =  229.898; ENMIN  =  172.424 eV                                                          
   ICORE  =        3    local potential                                                             
   LCOR   =        T    correct aug charges                                                         
   LPAW   =        T    paw PP                                                                      
   EAUG   =  461.257                                                                                
   DEXC   =    0.000                                                                                
   RMAX   =    2.561    core radius for proj-oper                                                   
   RAUG   =    1.300    factor for augmentation sphere                                              
   RDEP   =    2.597    radius for radial grids                                                     
   RDEPT  =    2.007    core radius for aug-charge                                                  
                                                                                                    
   Atomic configuration                                                                             
   11 entries                                                                                       
     n  l   j            E        occ.                                                              
     1  0  0.50    -17820.0161   2.0000                                                             
     2  0  0.50     -2467.0882   2.0000                                                             
     2  1  1.50     -2199.6095   6.0000                                                             
     3  0  0.50      -402.4863   2.0000                                                             
     3  1  1.50      -315.3675   6.0000                                                             
     3  2  2.50      -172.4472  10.0000                                                             
     4  0  0.50       -52.4146   2.0000                                                             
     5  0  0.50        -3.8421   1.0000                                                             
     4  1  1.50       -30.5054   6.0000                                                             
     4  2  2.50        -2.3341   3.0000                                                             
     4  3  2.50        -1.3606   0.0000                                                             
   Description                                                                                      
     l       E           TYP  RCUT    TYP  RCUT                                                     
     0    -52.4145962     23  2.200                                                                 
     0     -3.8421270     23  2.500                                                                 
     1    -30.5053914     23  2.200                                                                 
     1     20.4087390     23  2.200                                                                 
     2     -2.3340816     23  2.500                                                                 
     2     -0.6120942     23  2.500                                                                 
     3     -4.0817478     23  2.500                                                                 
  local pseudopotential read in
  partial core-charges read in
  partial kinetic energy density read in
  atomic valenz-charges read in
  non local Contribution for L=           0  read in
    real space projection operators read in
  non local Contribution for L=           0  read in
    real space projection operators read in
  non local Contribution for L=           1  read in
    real space projection operators read in
  non local Contribution for L=           1  read in
    real space projection operators read in
  non local Contribution for L=           2  read in
    real space projection operators read in
  non local Contribution for L=           2  read in
    real space projection operators read in
    PAW grid and wavefunctions read in
 
   number of l-projection  operators is LMAX  =           6
   number of lm-projection operators is LMMAX =          18
 
 POTCAR:    PAW_PBE O 08Apr2002                   
   SHA256 =  818f92134a0a090dccd8ba1447fa70422a3b330e708bb4f08108d8ae51209ddf O/POTCAR              
   COPYR  = (c) Copyright 08Apr2002 Georg Kresse                                                    
   COPYR  = This file is part of the software VASP. Any use, copying, and all other rights are regul
   COPYR  = If you do not have a valid VASP license, you may not use, copy or distribute this file. 
   VRHFIN =O: s2p4                                                                                  
   LEXCH  = PE                                                                                      
   EATOM  =   432.3788 eV,   31.7789 Ry                                                             
                                                                                                    
   TITEL  = PAW_PBE O 08Apr2002                                                                     
   LULTRA =        F    use ultrasoft PP ?                                                          
   IUNSCR =        1    unscreen: 0-lin 1-nonlin 2-no                                               
   RPACOR =    1.200    partial core radius                                                         
   POMASS =   16.000; ZVAL   =    6.000    mass and valenz                                          
   RCORE  =    1.520    outmost cutoff radius                                                       
   RWIGS  =    1.550; RWIGS  =    0.820    wigner-seitz radius (au A)                               
   ENMAX  =  400.000; ENMIN  =  300.000 eV                                                          
   ICORE  =        2    local potential                                                             
   LCOR   =        T    correct aug charges                                                         
   LPAW   =        T    paw PP                                                                      
   EAUG   =  605.392                                                                                
   DEXC   =    0.000                                                                                
   RMAX   =    1.553    core radius for proj-oper                                                   
   RAUG   =    1.300    factor for augmentation sphere                                              
   RDEP   =    1.550    radius for radial grids                                                     
   RDEPT  =    1.329    core radius for aug-charge                                                  
                                                                                                    
   Atomic configuration                                                                             
    4 entries                                                                                       
     n  l   j            E        occ.                                                              
     1  0  0.50      -514.6923   2.0000                                                             
     2  0  0.50       -23.9615   2.0000                                                             
     2  1  0.50        -9.0305   4.0000                                                             
     3  2  1.50        -9.5241   0.0000                                                             
   Description                                                                                      
     l       E           TYP  RCUT    TYP  RCUT                                                     
     0    -23.9615318     23  1.200                                                                 
     0     -9.5240782     23  1.200                                                                 
     1     -9.0304911     23  1.520                                                                 
     1      8.1634956     23  1.520                                                                 
     2     -9.5240782      7  1.500                                                                 
  local pseudopotential read in
  partial core-charges read in
  partial kinetic energy density read in
  kinetic energy density of atom read in
  atomic valenz-charges read in
  non local Contribution for L=           0  read in
    real space projection operators read in
  non local Contribution for L=           0  read in
    real space projection operators read in
  non local Contribution for L=           1  read in
    real space projection operators read in
  non local Contribution for L=           1  read in
    real space projection operators read in
    PAW grid and wavefunctions read in
 
   number of l-projection  operators is LMAX  =           4
   number of lm-projection operators is LMMAX =           8
 
 POTCAR:    PAW_PBE H 15Jun2001                   
   SHA256 =  030f79b5d3ab3cf0e668861823c8fb652ff669f3e15e46930bd03bfd63a607b6 H/POTCAR              
   COPYR  = (c) Copyright 15Jun2001 Georg Kresse                                                    
   COPYR  = This file is part of the software VASP. Any use, copying, and all other rights are regul
   COPYR  = If you do not have a valid VASP license, you may not use, copy or distribute this file. 
   VRHFIN =H: ultrasoft test                                                                        
   LEXCH  = PE                                                                                      
   EATOM  =    12.4884 eV,    0.9179 Ry                                                             
                                                                                                    
   TITEL  = PAW_PBE H 15Jun2001                                                                     
   LULTRA =        F    use ultrasoft PP ?                                                          
   IUNSCR =        0    unscreen: 0-lin 1-nonlin 2-no                                               
   RPACOR =    0.000    partial core radius                                                         
   POMASS =    1.000; ZVAL   =    1.000    mass and valenz                                          
   RCORE  =    1.100    outmost cutoff radius                                                       
   RWIGS  =    0.700; RWIGS  =    0.370    wigner-seitz radius (au A)                               
   ENMAX  =  250.000; ENMIN  =  200.000 eV                                                          
   RCLOC  =    0.701    cutoff for local pot                                                        
   LCOR   =        T    correct aug charges                                                         
   LPAW   =        T    paw PP                                                                      
   EAUG   =  400.000                                                                                
   RMAX   =    1.123    core radius for proj-oper                                                   
   RAUG   =    1.200    factor for augmentation sphere                                              
   RDEP   =    1.112    radius for radial grids                                                     
   RDEPT  =    0.926    core radius for aug-charge                                                  
                                                                                                    
   Atomic configuration                                                                             
    2 entries                                                                                       
     n  l   j            E        occ.                                                              
     1  0  0.50        -6.4927   1.0000                                                             
     2  1  0.50        -3.4015   0.0000                                                             
   Description                                                                                      
     l       E           TYP  RCUT    TYP  RCUT                                                     
     0     -6.4927494     23  1.100                                                                 
     0      6.8029130     23  1.100                                                                 
     1     -4.0817478     23  1.100                                                                 
  local pseudopotential read in
  atomic valenz-charges read in
  non local Contribution for L=           0  read in
    real space projection operators read in
  non local Contribution for L=           0  read in
    real space projection operators read in
  non local Contribution for L=           1  read in
    real space projection operators read in
    PAW grid and wavefunctions read in
 
   number of l-projection  operators is LMAX  =           3
   number of lm-projection operators is LMMAX =           5
 
  PAW_PBE Ba_sv 06Sep2000               :
 energy of atom  1       EATOM= -700.8560
 kinetic energy error for atom=    0.0014 (will be added to EATOM!!)
  PAW_PBE Zr_sv 04Jan2005               :
 energy of atom  2       EATOM=-1284.2219
 kinetic energy error for atom=    0.0075 (will be added to EATOM!!)
  PAW_PBE O 08Apr2002                   :
 energy of atom  3       EATOM= -432.3788
 kinetic energy error for atom=    0.1156 (will be added to EATOM!!)
  PAW_PBE H 15Jun2001                   :
 energy of atom  4       EATOM=  -12.4884
 kinetic energy error for atom=    0.0098 (will be added to EATOM!!)
 
 
 POSCAR: Ba Zr O  H
  positions in cartesian coordinates
  No initial velocities read in


 exchange-correlation table for PE
   RHO(1)=    0.500       N(1)  =     2000
   RHO(2)=  100.500       N(2)  =     4000

 VTST: version 4.1, (05/19/21)

 CHAIN: initializing optimizer
 
 OPT: Using VASP Dynamics algorithm
 CHAIN: Read ICHAIN            0
 
 POSCAR: Ba Zr O  H
  positions in cartesian coordinates
  No initial velocities read in
 


--------------------------------------------------------------------------------------------------------


 ion  position               nearest neighbor table
   1  0.000  0.000  0.000-   3 2.96   4 2.96   5 2.96   3 2.96   4 2.96   4 2.96   5 2.96   4 2.96
                             3 2.96   5 2.96   3 2.96   5 2.96   2 3.63   2 3.63   2 3.63   2 3.63
   2  0.500  0.500  0.500-   6 1.14   4 2.10   5 2.10   3 2.10   5 2.10   3 2.10   4 2.10   1 3.63
                             1 3.63   1 3.63   1 3.63   1 3.63   1 3.63   1 3.63   1 3.63
   3  0.500  0.000  0.500-   2 2.10   2 2.10   1 2.96   1 2.96   1 2.96   1 2.96
   4  0.000  0.500  0.500-   2 2.10   2 2.10   1 2.96   1 2.96   1 2.96   1 2.96
   5  0.500  0.500  0.000-   6 0.96   2 2.10   2 2.10   1 2.96   1 2.96   1 2.96   1 2.96
   6  0.500  0.500  0.229-   5 0.96   2 1.14
 
 -----------------------------------------------------------------------------
|                                                                             |
|           W    W    AA    RRRRR   N    N  II  N    N   GGGG   !!!           |
|           W    W   A  A   R    R  NN   N  II  NN   N  G    G  !!!           |
|           W    W  A    A  R    R  N N  N  II  N N  N  G       !!!           |
|           W WW W  AAAAAA  RRRRR   N  N N  II  N  N N  G  GGG   !            |
|           WW  WW  A    A  R   R   N   NN  II  N   NN  G    G                |
|           W    W  A    A  R    R  N    N  II  N    N   GGGG   !!!           |
|                                                                             |
|     The distance between some ions is very small. Please check the          |
|     nearest-neighbor list in the OUTCAR file.                               |
|     I HOPE YOU KNOW WHAT YOU ARE DOING!                                     |
|                                                                             |
 -----------------------------------------------------------------------------

  LATTYP: Found a simple cubic cell.
 ALAT       =     4.1920000000
  
  Lattice vectors:
  
 A1 = (   4.1920000000,   0.0000000000,   0.0000000000)
 A2 = (   0.0000000000,   4.1920000000,   0.0000000000)
 A3 = (   0.0000000000,   0.0000000000,   4.1920000000)


Analysis of symmetry for initial positions (statically):
=====================================================================
 Subroutine PRICEL returns:
 Original cell was already a primitive cell.
 

 Routine SETGRP: Setting up the symmetry group for a 
 simple cubic supercell.


 Subroutine GETGRP returns: Found  8 space group operations
 (whereof  8 operations were pure point group operations)
 out of a pool of 48 trial point group operations.


The static configuration has the point symmetry C_4v.


Analysis of symmetry for dynamics (positions and initial velocities):
=====================================================================
 Subroutine PRICEL returns:
 Original cell was already a primitive cell.
 

 Routine SETGRP: Setting up the symmetry group for a 
 simple cubic supercell.


 Subroutine GETGRP returns: Found  8 space group operations
 (whereof  8 operations were pure point group operations)
 out of a pool of 48 trial point group operations.


The dynamic configuration has the point symmetry C_4v.


 Subroutine INISYM returns: Found  8 space group operations
 (whereof  8 operations are pure point group operations),
 and found     1 'primitive' translations


----------------------------------------------------------------------------------------

                                     Primitive cell                                     

  volume of cell :      73.6654

  direct lattice vectors                    reciprocal lattice vectors
     4.192000000  0.000000000  0.000000000     0.238549618  0.000000000  0.000000000
     0.000000000  4.192000000  0.000000000     0.000000000  0.238549618  0.000000000
     0.000000000  0.000000000  4.192000000     0.000000000  0.000000000  0.238549618

  length of vectors
     4.192000000  4.192000000  4.192000000     0.238549618  0.238549618  0.238549618

  position of ions in fractional coordinates (direct lattice)
     0.000000000  0.000000000  0.000000000
     0.500000000  0.500000000  0.500000000
     0.500000000  0.000000000  0.500000000
     0.000000000  0.500000000  0.500000000
     0.500000000  0.500000000  0.000000000
     0.500000000  0.500000000  0.229007634

  ion indices of the primitive-cell ions
   primitive index   ion index
                 1           1
                 2           2
                 3           3
                 4           4
                 5           5
                 6           6

----------------------------------------------------------------------------------------

 
 
 KPOINTS: KPOINTS created by Atomic Simulation Env

Automatic generation of k-mesh.
 Grid dimensions read from file:
 generate k-points for:    1    1    1

 Generating k-lattice:

  Cartesian coordinates                     Fractional coordinates (reciprocal lattice)
     0.238549618  0.000000000  0.000000000     1.000000000  0.000000000  0.000000000
     0.000000000  0.238549618  0.000000000     0.000000000  1.000000000  0.000000000
     0.000000000  0.000000000  0.238549618     0.000000000  0.000000000  1.000000000

  Length of vectors
     0.238549618  0.238549618  0.238549618

  Shift w.r.t. Gamma in fractional coordinates (k-lattice)
     0.000000000  0.000000000  0.000000000

 
 Subroutine IBZKPT returns following result:
 ===========================================
 
 Found      1 irreducible k-points:
 
 Following reciprocal coordinates:
            Coordinates               Weight
  0.000000  0.000000  0.000000      1.000000
 
 Following cartesian coordinates:
            Coordinates               Weight
  0.000000  0.000000  0.000000      1.000000
 


--------------------------------------------------------------------------------------------------------




 Dimension of arrays:
   k-points           NKPTS =      1   k-points in BZ     NKDIM =      1   number of bands    NBANDS=     40
   number of dos      NEDOS =    301   number of ions     NIONS =      6
   non local maximal  LDIM  =      6   non local SUM 2l+1 LMDIM =     18
   total plane-waves  NPLWV =  13824
   max r-space proj   IRMAX =      1   max aug-charges    IRDMAX=  11945
   dimension x,y,z NGX =    24 NGY =   24 NGZ =   24
   dimension x,y,z NGXF=    48 NGYF=   48 NGZF=   48
   support grid    NGXF=    48 NGYF=   48 NGZF=   48
   ions per type =               1   1   3   1
   NGX,Y,Z   is equivalent  to a cutoff of   9.52,  9.52,  9.52 a.u.
   NGXF,Y,Z  is equivalent  to a cutoff of  19.04, 19.04, 19.04 a.u.

 SYSTEM =  unknown system                          
 POSCAR =  Ba Zr O  H                              

 Startparameter for this run:
   NWRITE =      2    write-flag & timer
   PREC   = normal    normal or accurate (medium, high low for compatibility)
   ISTART =      0    job   : 0-new  1-cont  2-samecut
   ICHARG =      2    charge: 1-file 2-atom 10-const
   ISPIN  =      1    spin polarized calculation?
   LNONCOLLINEAR =      F non collinear calculations
   LSORBIT =      F    spin-orbit coupling
   INIWAV =      1    electr: 0-lowe 1-rand  2-diag
   LASPH  =      F    aspherical Exc in radial PAW
 Electronic Relaxation 1
   ENCUT  =  400.0 eV  29.40 Ry    5.42 a.u.   6.84  6.84  6.84*2*pi/ulx,y,z
   ENINI  =  400.0     initial cutoff
   ENAUG  =  605.4 eV  augmentation charge cutoff
   NELM   =     60;   NELMIN=  2; NELMDL= -5     # of ELM steps 
   EDIFF  = 0.1E-03   stopping-criterion for ELM
   LREAL  =      F    real-space projection
   NLSPLINE    = F    spline interpolate recip. space projectors
   LCOMPAT=      F    compatible to vasp.4.4
   GGA_COMPAT  = T    GGA compatible to vasp.4.4-vasp.4.6
   LMAXPAW     = -100 max onsite density
   LMAXMIX     =    2 max onsite mixed and CHGCAR
   VOSKOWN=      0    Vosko Wilk Nusair interpolation
   ROPT   =    0.00000   0.00000   0.00000   0.00000
 Ionic relaxation
   EDIFFG = 0.1E-02   stopping-criterion for IOM
   NSW    =      0    number of steps for IOM
   NBLOCK =      1;   KBLOCK =      1    inner block; outer block 
   IBRION =     -1    ionic relax: 0-MD 1-quasi-New 2-CG
   NFREE  =      0    steps in history (QN), initial steepest desc. (CG)
   ISIF   =      2    stress and relaxation
   IWAVPR =     10    prediction:  0-non 1-charg 2-wave 3-comb
   ISYM   =      2    0-nonsym 1-usesym 2-fastsym
   LCORR  =      T    Harris-Foulkes like correction to forces

   POTIM  = 0.5000    time-step for ionic-motion
   TEIN   =    0.0    initial temperature
   TEBEG  =    0.0;   TEEND  =   0.0 temperature during run
   SMASS  =  -3.00    Nose mass-parameter (am)
   estimated Nose-frequenzy (Omega)   =  0.10E-29 period in steps = 0.13E+47 mass=  -0.402E-27a.u.
   SCALEE = 1.0000    scale energy and forces
   NPACO  =    256;   APACO  = 10.0  distance and # of slots for P.C.
   PSTRESS=    0.0 pullay stress

  Mass of Ions in am
   POMASS = 137.33 91.22 16.00  1.00
  Ionic Valenz
   ZVAL   =  10.00 12.00  6.00  1.00
  Atomic Wigner-Seitz radii
   RWIGS  =  -1.00 -1.00 -1.00 -1.00
  virtual crystal weights 
   VCA    =   1.00  1.00  1.00  1.00
   NELECT =      41.0000    total number of electrons
   NUPDOWN=      -1.0000    fix difference up-down

 DOS related values:
   EMIN   =  10.00;   EMAX   =-10.00  energy-range for DOS
   EFERMI =   0.00;   METHOD = LEGACY      
   ISMEAR =     1;   SIGMA  =   0.20  broadening in eV -4-tet -1-fermi 0-gaus

 Electronic relaxation 2 (details)
   IALGO  =     38    algorithm
   LDIAG  =      T    sub-space diagonalisation (order eigenvalues)
   LSUBROT=      F    optimize rotation matrix (better conditioning)
   TURBO    =      0    0=normal 1=particle mesh
   IRESTART =      0    0=no restart 2=restart with 2 vectors
   NREBOOT  =      0    no. of reboots
   NMIN     =      0    reboot dimension
   EREF     =   0.00    reference energy to select bands
   IMIX   =      4    mixing-type and parameters
     AMIX     =   0.40;   BMIX     =  1.00
     AMIX_MAG =   1.60;   BMIX_MAG =  1.00
     AMIN     =   0.10
     WC   =   100.;   INIMIX=   1;  MIXPRE=   1;  MAXMIX= -45

 Intra band minimization:
   WEIMIN = 0.0000     energy-eigenvalue tresh-hold
   EBREAK =  0.63E-06  absolut break condition
   DEPER  =   0.30     relativ break condition  

   TIME   =   0.40     timestep for ELM

  volume/ion in A,a.u.               =      12.28        82.85
  Fermi-wavevector in a.u.,A,eV,Ry     =   1.346630  2.544761 24.672961  1.813411
  Thomas-Fermi vector in A             =   2.474446
 
 Write flags
   LWAVE        =      T    write WAVECAR
   LDOWNSAMPLE  =      F    k-point downsampling of WAVECAR
   LCHARG       =      T    write CHGCAR
   LVTOT        =      F    write LOCPOT, total local potential
   LVHAR        =      F    write LOCPOT, Hartree potential only
   WRT_POTENTIAL= false  ! write potential to hdf5 file
   LELF         =      F    write electronic localiz. function (ELF)
   LORBIT       =      0    0 simple, 1 ext, 2 COOP (PROOUT), +10 PAW based schemes


 Dipole corrections
   LMONO      =      F    monopole corrections only (constant potential shift)
   LDIPOL     =      F    correct potential (dipole corrections)
   IDIPOL     =      0    1-x, 2-y, 3-z, 4-all directions 
   EPSILON    =  1.0000000 bulk dielectric constant
   LVACPOTAV  =      F  vacuum potentials using an averaging scheme for the charge density
   VACPOTFLAT =  0.1000000 required flatness to determine vacuum potential
 Exchange correlation treatment:
   GGA     = PE    functional components
   XC_C    = 1    coefficients multiplying the functional components
   LIBXC   =     F    Libxc                    
   VOSKOWN =     0    Vosko Wilk Nusair interpolation
   LHFCALC =     F    Hartree Fock is set to
   LHFONE  =     F    Hartree Fock one center treatment
   AEXX    =    0.0000 exact exchange contribution

 Parameters of functionals:
   PE:
     No parameter
 
 Van der Waals corrections
   IVDW    =     0    specifies the selected vdW correction

 Linear response parameters
   LEPSILON=     F    determine dielectric tensor
   LRPA    =     F    only Hartree local field effects (RPA)
   LNABLA  =     F    use nabla operator in PAW spheres
   LVEL    =     F    velocity operator in full k-point grid
   CSHIFT  =0.1000    complex shift for real part using Kramers Kronig
   OMEGAMAX=  -1.0    maximum frequency
   DEG_THRESHOLD= 0.2000000E-02 threshold for treating states as degnerate
   RTIME   =   -0.100 relaxation time in fs
  (WPLASMAI=    0.000 imaginary part of plasma frequency in eV, 0.658/RTIME)
   DFIELD  = 0.0000000 0.0000000 0.0000000 field for delta impulse in time
 
  Optional k-point grid parameters
   LKPOINTS_OPT  =     F    use optional k-point grid
   KPOINTS_OPT_MODE=     1    mode for optional k-point grid
 
 Orbital magnetization related:
   ORBITALMAG=     F  switch on orbital magnetization
   LCHIMAG   =     F  perturbation theory with respect to B field
   DQ        =  0.001000  dq finite difference perturbation B field
   LLRAUG    =     F  two centre corrections for induced B field
   LBONE     =     F  B-component reconstruction in AE one-centre
   LVGVCALC  =     T  calculate vGv susceptibility
   LVGVAPPL  =     F  apply vGv susceptibility instead of pGv for G=0

 Random number generation:
   RANDOM_GENERATOR = DEFAULT
   PCG_SEED         = not used


--------------------------------------------------------------------------------------------------------


 Static calculation
 charge density and potential will be updated during run
 non-spin polarized calculation
 Variant of blocked Davidson
 Davidson routine will perform the subspace rotation
 perform sub-space diagonalisation
    after iterative eigenvector-optimisation
 modified Broyden-mixing scheme, WC =      100.0
 initial mixing is a Kerker type mixing with AMIX =  0.4000 and BMIX =      1.0000
 Hartree-type preconditioning will be used
 using additional bands           19
 reciprocal scheme for non local part
 use partial core corrections
 calculate Harris-corrections to forces 
   (improved forces if not selfconsistent)
 use gradient corrections 
 use of overlap-Matrix (Vanderbilt PP)
 Methfessel and Paxton  Order N= 1 SIGMA  =   0.20


--------------------------------------------------------------------------------------------------------


  energy-cutoff  :      400.00
  volume of cell :       73.67
      direct lattice vectors                 reciprocal lattice vectors
     4.192000000  0.000000000  0.000000000     0.238549618  0.000000000  0.000000000
     0.000000000  4.192000000  0.000000000     0.000000000  0.238549618  0.000000000
     0.000000000  0.000000000  4.192000000     0.000000000  0.000000000  0.238549618

  length of vectors
     4.192000000  4.192000000  4.192000000     0.238549618  0.238549618  0.238549618


 
 k-points in units of 2pi/SCALE and weight: KPOINTS created by Atomic Simulation Env
   0.00000000  0.00000000  0.00000000       1.000
 
 k-points in reciprocal lattice and weights: KPOINTS created by Atomic Simulation Env
   0.00000000  0.00000000  0.00000000       1.000
 
 position of ions in fractional coordinates (direct lattice) 
   0.00000000  0.00000000  0.00000000
   0.50000000  0.50000000  0.50000000
   0.50000000  0.00000000  0.50000000
   0.00000000  0.50000000  0.50000000
   0.50000000  0.50000000  0.00000000
   0.50000000  0.50000000  0.22900763
 
 position of ions in cartesian coordinates  (Angst):
   0.00000000  0.00000000  0.00000000
   2.09600000  2.09600000  2.09600000
   2.09600000  0.00000000  2.09600000
   0.00000000  2.09600000  2.09600000
   2.09600000  2.09600000  0.00000000
   2.09600000  2.09600000  0.96000000
 


--------------------------------------------------------------------------------------------------------


 k-point     1 :   0.0000 0.0000 0.0000  plane waves:    1357

 maximum and minimum number of plane-waves per node :      1357     1357

 maximum number of plane-waves:      1357
 maximum index in each direction: 
   IXMAX=    6   IYMAX=    6   IZMAX=    6
   IXMIN=   -6   IYMIN=   -6   IZMIN=   -6


 serial   3D FFT for wavefunctions
 parallel 3D FFT for charge:
    minimum data exchange during FFTs selected (reduces bandwidth)


 total amount of memory used by VASP MPI-rank0    32145. kBytes
=======================================================================

   base      :      30000. kBytes
   nonl-proj :        913. kBytes
   fftplans  :        212. kBytes
   grid      :        904. kBytes
   one-center:         93. kBytes
   wavefun   :         23. kBytes
 
     INWAV:  cpu time      0.0000: real time      0.0000
 Broyden mixing: mesh for mixing (old mesh)
   NGX = 13   NGY = 13   NGZ = 13
  (NGX  = 48   NGY  = 48   NGZ  = 48)
  gives a total of   2197 points

 initial charge density was supplied:
 charge density of overlapping atoms calculated
 number of electron      41.0000000 magnetization 
 keeping initial charge density in first step


--------------------------------------------------------------------------------------------------------


 Maximum index for augmentation-charges         1030 (set IRDMAX)


--------------------------------------------------------------------------------------------------------


 First call to EWALD:  gamma=   0.423
 Maximum number of real-space cells 3x 3x 3
 Maximum number of reciprocal cells 3x 3x 3

    FEWALD:  cpu time      0.0014: real time      0.0014


--------------------------------------- Ionic step        1  -------------------------------------------




--------------------------------------- Iteration      1(   1)  ---------------------------------------


    POTLOK:  cpu time      0.0073: real time      0.0080
    SETDIJ:  cpu time      0.0027: real time      0.0027
     EDDAV:  cpu time      0.0280: real time      0.0281
       DOS:  cpu time      0.0010: real time      0.0010
    --------------------------------------------
      LOOP:  cpu time      0.0390: real time      0.0399

 eigenvalue-minimisations  :    80
 total energy-change (2. order) : 0.1282273E+03  (-0.2237867E+04)
 number of electron      41.0000000 magnetization 
 augmentation part       41.0000000 magnetization 

 Free energy of the ion-electron system (eV)
  ---------------------------------------------------
  alpha Z        PSCENC =       247.70705689
  Ewald energy   TEWEN  =     -2661.32637194
  -Hartree energ DENC   =      -715.25075161
  -exchange      EXHF   =         0.00000000
  -V(xc)+E(xc)   XCENC  =       163.93071392
  PAW double counting   =      2563.18628374    -2546.99615649
  entropy T*S    EENTRO =        -0.05484728
  eigenvalues    EBANDS =      -217.30586550
  atomic energy  EATOM  =      3294.33724724
  Solvation  Ediel_sol  =         0.00000000
  ---------------------------------------------------
  free energy    TOTEN  =       128.22730897 eV

  energy without entropy =      128.28215624  energy(sigma->0) =      128.24559139


--------------------------------------------------------------------------------------------------------




--------------------------------------- Iteration      1(   2)  ---------------------------------------


     EDDAV:  cpu time      0.0313: real time      0.0328
       DOS:  cpu time      0.0003: real time      0.0003
    --------------------------------------------
      LOOP:  cpu time      0.0316: real time      0.0331

 eigenvalue-minimisations  :   120
 total energy-change (2. order) :-0.1577907E+03  (-0.1577647E+03)
 number of electron      41.0000000 magnetization 
 augmentation part       41.0000000 magnetization 

 Free energy of the ion-electron system (eV)
  ---------------------------------------------------
  alpha Z        PSCENC =       247.70705689
  Ewald energy   TEWEN  =     -2661.32637194
  -Hartree energ DENC   =      -715.25075161
  -exchange      EXHF   =         0.00000000
  -V(xc)+E(xc)   XCENC  =       163.93071392
  PAW double counting   =      2563.18628374    -2546.99615649
  entropy T*S    EENTRO =        -0.08250168
  eigenvalues    EBANDS =      -375.06889183
  atomic energy  EATOM  =      3294.33724724
  Solvation  Ediel_sol  =         0.00000000
  ---------------------------------------------------
  free energy    TOTEN  =       -29.56337178 eV

  energy without entropy =      -29.48087010  energy(sigma->0) =      -29.53587122


--------------------------------------------------------------------------------------------------------




--------------------------------------- Iteration      1(   3)  ---------------------------------------


     EDDAV:  cpu time      0.0121: real time      0.0198
       DOS:  cpu time      0.0002: real time      0.0002
    --------------------------------------------
      LOOP:  cpu time      0.0123: real time      0.0200

 eigenvalue-minimisations  :    80
 total energy-change (2. order) :-0.8266106E+00  (-0.8265900E+00)
 number of electron      41.0000000 magnetization 
 augmentation part       41.0000000 magnetization 

 Free energy of the ion-electron system (eV)
  ---------------------------------------------------
  alpha Z        PSCENC =       247.70705689
  Ewald energy   TEWEN  =     -2661.32637194
  -Hartree energ DENC   =      -715.25075161
  -exchange      EXHF   =         0.00000000
  -V(xc)+E(xc)   XCENC  =       163.93071392
  PAW double counting   =      2563.18628374    -2546.99615649
  entropy T*S    EENTRO =        -0.08252104
  eigenvalues    EBANDS =      -375.89548309
  atomic energy  EATOM  =      3294.33724724
  Solvation  Ediel_sol  =         0.00000000
  ---------------------------------------------------
  free energy    TOTEN  =       -30.38998239 eV

  energy without entropy =      -30.30746136  energy(sigma->0) =      -30.36247538


--------------------------------------------------------------------------------------------------------




--------------------------------------- Iteration      1(   4)  ---------------------------------------


     EDDAV:  cpu time      0.0209: real time      0.0276
       DOS:  cpu time      0.0002: real time      0.0002
    --------------------------------------------
      LOOP:  cpu time      0.0211: real time      0.0278

 eigenvalue-minimisations  :   120
 total energy-change (2. order) :-0.3520590E-02  (-0.3520589E-02)
 number of electron      41.0000000 magnetization 
 augmentation part       41.0000000 magnetization 

 Free energy of the ion-electron system (eV)
  ---------------------------------------------------
  alpha Z        PSCENC =       247.70705689
  Ewald energy   TEWEN  =     -2661.32637194
  -Hartree energ DENC   =      -715.25075161
  -exchange      EXHF   =         0.00000000
  -V(xc)+E(xc)   XCENC  =       163.93071392
  PAW double counting   =      2563.18628374    -2546.99615649
  entropy T*S    EENTRO =        -0.08252098
  eigenvalues    EBANDS =      -375.89900374
  atomic energy  EATOM  =      3294.33724724
  Solvation  Ediel_sol  =         0.00000000
  ---------------------------------------------------
  free energy    TOTEN  =       -30.39350298 eV

  energy without entropy =      -30.31098200  energy(sigma->0) =      -30.36599599


--------------------------------------------------------------------------------------------------------




--------------------------------------- Iteration      1(   5)  ---------------------------------------


     EDDAV:  cpu time      0.0118: real time      0.0195
       DOS:  cpu time      0.0002: real time      0.0002
    CHARGE:  cpu time      0.0042: real time      0.0042
    MIXING:  cpu time      0.0019: real time      0.0019
    --------------------------------------------
      LOOP:  cpu time      0.0181: real time      0.0258

 eigenvalue-minimisations  :    80
 total energy-change (2. order) :-0.2777038E-05  (-0.2776415E-05)
 number of electron      41.0000144 magnetization 
 augmentation part        1.8557247 magnetization 

 Broyden mixing:
  rms(total) = 0.25646E+01    rms(broyden)= 0.25634E+01
  rms(prec ) = 0.48219E+01
  weight for this iteration     100.00

 Free energy of the ion-electron system (eV)
  ---------------------------------------------------
  alpha Z        PSCENC =       247.70705689
  Ewald energy   TEWEN  =     -2661.32637194
  -Hartree energ DENC   =      -715.25075161
  -exchange      EXHF   =         0.00000000
  -V(xc)+E(xc)   XCENC  =       163.93071392
  PAW double counting   =      2563.18628374    -2546.99615649
  entropy T*S    EENTRO =        -0.08252098
  eigenvalues    EBANDS =      -375.89900652
  atomic energy  EATOM  =      3294.33724724
  Solvation  Ediel_sol  =         0.00000000
  ---------------------------------------------------
  free energy    TOTEN  =       -30.39350576 eV

  energy without entropy =      -30.31098478  energy(sigma->0) =      -30.36599877


--------------------------------------------------------------------------------------------------------




--------------------------------------- Iteration      1(   6)  ---------------------------------------


    POTLOK:  cpu time      0.0041: real time      0.0115
    SETDIJ:  cpu time      0.0016: real time      0.0016
     EDDAV:  cpu time      0.0113: real time      0.0113
       DOS:  cpu time      0.0002: real time      0.0002
    CHARGE:  cpu time      0.0021: real time      0.0021
    MIXING:  cpu time      0.0008: real time      0.0008
    --------------------------------------------
      LOOP:  cpu time      0.0202: real time      0.0276

 eigenvalue-minimisations  :    80
 total energy-change (2. order) : 0.1150088E+02  (-0.6011720E+01)
 number of electron      41.0000116 magnetization 
 augmentation part        1.2829306 magnetization 

 Broyden mixing:
  rms(total) = 0.11962E+01    rms(broyden)= 0.11953E+01
  rms(prec ) = 0.15288E+01
  weight for this iteration     100.00

 eigenvalues of (default mixing * dielectric matrix)
  average eigenvalue GAMMA=   1.0877
  1.0877

 Free energy of the ion-electron system (eV)
  ---------------------------------------------------
  alpha Z        PSCENC =       247.70705689
  Ewald energy   TEWEN  =     -2661.32637194
  -Hartree energ DENC   =      -763.72803173
  -exchange      EXHF   =         0.00000000
  -V(xc)+E(xc)   XCENC  =       167.74871534
  PAW double counting   =      3140.19039385    -3130.07435921
  entropy T*S    EENTRO =        -0.08252286
  eigenvalues    EBANDS =      -313.66475232
  atomic energy  EATOM  =      3294.33724724
  Solvation  Ediel_sol  =         0.00000000
  ---------------------------------------------------
  free energy    TOTEN  =       -18.89262474 eV

  energy without entropy =      -18.81010188  energy(sigma->0) =      -18.86511712


--------------------------------------------------------------------------------------------------------




--------------------------------------- Iteration      1(   7)  ---------------------------------------


    POTLOK:  cpu time      0.0038: real time      0.0112
    SETDIJ:  cpu time      0.0016: real time      0.0016
     EDDAV:  cpu time      0.0380: real time      0.0381
       DOS:  cpu time      0.0003: real time      0.0003
    CHARGE:  cpu time      0.0021: real time      0.0021
    MIXING:  cpu time      0.0002: real time      0.0002
    --------------------------------------------
      LOOP:  cpu time      0.0459: real time      0.0535

 eigenvalue-minimisations  :   160
 total energy-change (2. order) : 0.3400701E+00  (-0.6282475E-01)
 number of electron      41.0000116 magnetization 
 augmentation part        1.2726079 magnetization 

 Broyden mixing:
  rms(total) = 0.66970E+00    rms(broyden)= 0.66965E+00
  rms(prec ) = 0.85744E+00
  weight for this iteration     100.00

 eigenvalues of (default mixing * dielectric matrix)
  average eigenvalue GAMMA=   1.6620
  1.0239  2.3001

 Free energy of the ion-electron system (eV)
  ---------------------------------------------------
  alpha Z        PSCENC =       247.70705689
  Ewald energy   TEWEN  =     -2661.32637194
  -Hartree energ DENC   =      -760.97368038
  -exchange      EXHF   =         0.00000000
  -V(xc)+E(xc)   XCENC  =       167.63606408
  PAW double counting   =      3509.27768896    -3500.35104363
  entropy T*S    EENTRO =        -0.08221203
  eigenvalues    EBANDS =      -314.77730385
  atomic energy  EATOM  =      3294.33724724
  Solvation  Ediel_sol  =         0.00000000
  ---------------------------------------------------
  free energy    TOTEN  =       -18.55255466 eV

  energy without entropy =      -18.47034263  energy(sigma->0) =      -18.52515065


--------------------------------------------------------------------------------------------------------




--------------------------------------- Iteration      1(   8)  ---------------------------------------


    POTLOK:  cpu time      0.0045: real time      0.0113
    SETDIJ:  cpu time      0.0015: real time      0.0015
     EDDAV:  cpu time      0.0114: real time      0.0114
       DOS:  cpu time      0.0002: real time      0.0002
    CHARGE:  cpu time      0.0021: real time      0.0021
    MIXING:  cpu time      0.0003: real time      0.0003
    --------------------------------------------
      LOOP:  cpu time      0.0200: real time      0.0269

 eigenvalue-minimisations  :    80
 total energy-change (2. order) : 0.8370457E-01  (-0.4126553E-01)
 number of electron      41.0000117 magnetization 
 augmentation part        1.2827849 magnetization 

 Broyden mixing:
  rms(total) = 0.71330E-01    rms(broyden)= 0.71204E-01
  rms(prec ) = 0.15663E+00
  weight for this iteration     100.00

 eigenvalues of (default mixing * dielectric matrix)
  average eigenvalue GAMMA=   1.4464
  2.2244  1.0573  1.0573

 Free energy of the ion-electron system (eV)
  ---------------------------------------------------
  alpha Z        PSCENC =       247.70705689
  Ewald energy   TEWEN  =     -2661.32637194
  -Hartree energ DENC   =      -759.77206911
  -exchange      EXHF   =         0.00000000
  -V(xc)+E(xc)   XCENC  =       167.67503181
  PAW double counting   =      4011.58841029    -4003.68165942
  entropy T*S    EENTRO =        -0.03606729
  eigenvalues    EBANDS =      -314.96042856
  atomic energy  EATOM  =      3294.33724724
  Solvation  Ediel_sol  =         0.00000000
  ---------------------------------------------------
  free energy    TOTEN  =       -18.46885009 eV

  energy without entropy =      -18.43278280  energy(sigma->0) =      -18.45682766


--------------------------------------------------------------------------------------------------------




--------------------------------------- Iteration      1(   9)  ---------------------------------------


    POTLOK:  cpu time      0.0033: real time      0.0111
    SETDIJ:  cpu time      0.0015: real time      0.0015
     EDDAV:  cpu time      0.0346: real time      0.0346
       DOS:  cpu time      0.0002: real time      0.0002
    CHARGE:  cpu time      0.0021: real time      0.0021
    MIXING:  cpu time      0.0002: real time      0.0002
    --------------------------------------------
      LOOP:  cpu time      0.0419: real time      0.0498

 eigenvalue-minimisations  :   160
 total energy-change (2. order) :-0.6386278E-02  (-0.1655220E-01)
 number of electron      41.0000113 magnetization 
 augmentation part        1.2495186 magnetization 

 Broyden mixing:
  rms(total) = 0.16049E+00    rms(broyden)= 0.16003E+00
  rms(prec ) = 0.39614E+00
  weight for this iteration     100.00

 eigenvalues of (default mixing * dielectric matrix)
  average eigenvalue GAMMA=   1.2189
  2.1229  1.4843  0.9740  0.2945

 Free energy of the ion-electron system (eV)
  ---------------------------------------------------
  alpha Z        PSCENC =       247.70705689
  Ewald energy   TEWEN  =     -2661.32637194
  -Hartree energ DENC   =      -761.41724949
  -exchange      EXHF   =         0.00000000
  -V(xc)+E(xc)   XCENC  =       167.80164507
  PAW double counting   =      4017.44084787    -4009.52272774
  entropy T*S    EENTRO =        -0.06474663
  eigenvalues    EBANDS =      -313.43093763
  atomic energy  EATOM  =      3294.33724724
  Solvation  Ediel_sol  =         0.00000000
  ---------------------------------------------------
  free energy    TOTEN  =       -18.47523637 eV

  energy without entropy =      -18.41048973  energy(sigma->0) =      -18.45365416


--------------------------------------------------------------------------------------------------------




--------------------------------------- Iteration      1(  10)  ---------------------------------------


    POTLOK:  cpu time      0.0035: real time      0.0109
    SETDIJ:  cpu time      0.0016: real time      0.0016
     EDDAV:  cpu time      0.0113: real time      0.0114
       DOS:  cpu time      0.0002: real time      0.0002
    CHARGE:  cpu time      0.0021: real time      0.0021
    MIXING:  cpu time      0.0003: real time      0.0003
    --------------------------------------------
      LOOP:  cpu time      0.0190: real time      0.0264

 eigenvalue-minimisations  :    80
 total energy-change (2. order) : 0.4019950E-02  (-0.2049821E-01)
 number of electron      41.0000117 magnetization 
 augmentation part        1.2750579 magnetization 

 Broyden mixing:
  rms(total) = 0.41711E-01    rms(broyden)= 0.40442E-01
  rms(prec ) = 0.10585E+00
  weight for this iteration     100.00

 eigenvalues of (default mixing * dielectric matrix)
  average eigenvalue GAMMA=   1.3519
  2.5755  1.9504  1.0100  0.9914  0.2323

 Free energy of the ion-electron system (eV)
  ---------------------------------------------------
  alpha Z        PSCENC =       247.70705689
  Ewald energy   TEWEN  =     -2661.32637194
  -Hartree energ DENC   =      -761.49248719
  -exchange      EXHF   =         0.00000000
  -V(xc)+E(xc)   XCENC  =       167.77802502
  PAW double counting   =      4002.70041070    -3994.57700047
  entropy T*S    EENTRO =        -0.03764636
  eigenvalues    EBANDS =      -313.56045031
  atomic energy  EATOM  =      3294.33724724
  Solvation  Ediel_sol  =         0.00000000
  ---------------------------------------------------
  free energy    TOTEN  =       -18.47121642 eV

  energy without entropy =      -18.43357006  energy(sigma->0) =      -18.45866763


--------------------------------------------------------------------------------------------------------




--------------------------------------- Iteration      1(  11)  ---------------------------------------


    POTLOK:  cpu time      0.0032: real time      0.0103
    SETDIJ:  cpu time      0.0016: real time      0.0016
     EDDAV:  cpu time      0.0350: real time      0.0351
       DOS:  cpu time      0.0002: real time      0.0002
    CHARGE:  cpu time      0.0021: real time      0.0021
    MIXING:  cpu time      0.0002: real time      0.0002
    --------------------------------------------
      LOOP:  cpu time      0.0423: real time      0.0495

 eigenvalue-minimisations  :   160
 total energy-change (2. order) : 0.1129600E-02  (-0.7861330E-03)
 number of electron      41.0000117 magnetization 
 augmentation part        1.2741159 magnetization 

 Broyden mixing:
  rms(total) = 0.34338E-01    rms(broyden)= 0.34242E-01
  rms(prec ) = 0.90578E-01
  weight for this iteration     100.00

 eigenvalues of (default mixing * dielectric matrix)
  average eigenvalue GAMMA=   1.3420
  2.7979  1.9726  1.2959  1.0158  0.7325  0.2376

 Free energy of the ion-electron system (eV)
  ---------------------------------------------------
  alpha Z        PSCENC =       247.70705689
  Ewald energy   TEWEN  =     -2661.32637194
  -Hartree energ DENC   =      -762.20262043
  -exchange      EXHF   =         0.00000000
  -V(xc)+E(xc)   XCENC  =       167.83392473
  PAW double counting   =      4011.39147315    -4003.21933270
  entropy T*S    EENTRO =        -0.02681860
  eigenvalues    EBANDS =      -312.96464517
  atomic energy  EATOM  =      3294.33724724
  Solvation  Ediel_sol  =         0.00000000
  ---------------------------------------------------
  free energy    TOTEN  =       -18.47008682 eV

  energy without entropy =      -18.44326821  energy(sigma->0) =      -18.46114728


--------------------------------------------------------------------------------------------------------




--------------------------------------- Iteration      1(  12)  ---------------------------------------


    POTLOK:  cpu time      0.0034: real time      0.0108
    SETDIJ:  cpu time      0.0015: real time      0.0015
     EDDAV:  cpu time      0.0113: real time      0.0113
       DOS:  cpu time      0.0002: real time      0.0002
    CHARGE:  cpu time      0.0020: real time      0.0020
    MIXING:  cpu time      0.0002: real time      0.0003
    --------------------------------------------
      LOOP:  cpu time      0.0187: real time      0.0262

 eigenvalue-minimisations  :    80
 total energy-change (2. order) : 0.1622042E-02  (-0.3729234E-03)
 number of electron      41.0000116 magnetization 
 augmentation part        1.2725874 magnetization 

 Broyden mixing:
  rms(total) = 0.25129E-01    rms(broyden)= 0.25125E-01
  rms(prec ) = 0.65081E-01
  weight for this iteration     100.00

 eigenvalues of (default mixing * dielectric matrix)
  average eigenvalue GAMMA=   1.5278
  3.1151  2.2876  1.5572  1.5572  1.0194  0.9213  0.2367

 Free energy of the ion-electron system (eV)
  ---------------------------------------------------
  alpha Z        PSCENC =       247.70705689
  Ewald energy   TEWEN  =     -2661.32637194
  -Hartree energ DENC   =      -762.22341613
  -exchange      EXHF   =         0.00000000
  -V(xc)+E(xc)   XCENC  =       167.84209556
  PAW double counting   =      4009.23114310    -4001.06679444
  entropy T*S    EENTRO =        -0.02264233
  eigenvalues    EBANDS =      -312.94678273
  atomic energy  EATOM  =      3294.33724724
  Solvation  Ediel_sol  =         0.00000000
  ---------------------------------------------------
  free energy    TOTEN  =       -18.46846478 eV

  energy without entropy =      -18.44582244  energy(sigma->0) =      -18.46091733


--------------------------------------------------------------------------------------------------------




--------------------------------------- Iteration      1(  13)  ---------------------------------------


    POTLOK:  cpu time      0.0032: real time      0.0112
    SETDIJ:  cpu time      0.0016: real time      0.0016
     EDDAV:  cpu time      0.0343: real time      0.0344
       DOS:  cpu time      0.0002: real time      0.0002
    CHARGE:  cpu time      0.0021: real time      0.0021
    MIXING:  cpu time      0.0003: real time      0.0003
    --------------------------------------------
      LOOP:  cpu time      0.0417: real time      0.0498

 eigenvalue-minimisations  :   160
 total energy-change (2. order) : 0.6498524E-03  (-0.7344070E-03)
 number of electron      41.0000116 magnetization 
 augmentation part        1.2682260 magnetization 

 Broyden mixing:
  rms(total) = 0.10657E-01    rms(broyden)= 0.10420E-01
  rms(prec ) = 0.26775E-01
  weight for this iteration     100.00

 eigenvalues of (default mixing * dielectric matrix)
  average eigenvalue GAMMA=   1.4421
  2.8552  2.2951  1.6519  1.6519  1.0169  0.9145  0.9145  0.2367

 Free energy of the ion-electron system (eV)
  ---------------------------------------------------
  alpha Z        PSCENC =       247.70705689
  Ewald energy   TEWEN  =     -2661.32637194
  -Hartree energ DENC   =      -762.18306773
  -exchange      EXHF   =         0.00000000
  -V(xc)+E(xc)   XCENC  =       167.84785515
  PAW double counting   =      4001.91529877    -3993.75496665
  entropy T*S    EENTRO =        -0.02871461
  eigenvalues    EBANDS =      -312.98215204
  atomic energy  EATOM  =      3294.33724724
  Solvation  Ediel_sol  =         0.00000000
  ---------------------------------------------------
  free energy    TOTEN  =       -18.46781492 eV

  energy without entropy =      -18.43910031  energy(sigma->0) =      -18.45824339


--------------------------------------------------------------------------------------------------------




--------------------------------------- Iteration      1(  14)  ---------------------------------------


    POTLOK:  cpu time      0.0032: real time      0.0109
    SETDIJ:  cpu time      0.0016: real time      0.0016
     EDDAV:  cpu time      0.0113: real time      0.0113
       DOS:  cpu time      0.0002: real time      0.0002
    --------------------------------------------
      LOOP:  cpu time      0.0162: real time      0.0240

 eigenvalue-minimisations  :    80
 total energy-change (2. order) : 0.5136218E-04  (-0.8883063E-04)
 number of electron      41.0000116 magnetization 
 augmentation part        1.2682260 magnetization 

 Free energy of the ion-electron system (eV)
  ---------------------------------------------------
  alpha Z        PSCENC =       247.70705689
  Ewald energy   TEWEN  =     -2661.32637194
  -Hartree energ DENC   =      -762.15638764
  -exchange      EXHF   =         0.00000000
  -V(xc)+E(xc)   XCENC  =       167.84396413
  PAW double counting   =      4001.39406199    -3993.22638953
  entropy T*S    EENTRO =        -0.02518588
  eigenvalues    EBANDS =      -313.01575882
  atomic energy  EATOM  =      3294.33724724
  Solvation  Ediel_sol  =         0.00000000
  ---------------------------------------------------
  free energy    TOTEN  =       -18.46776356 eV

  energy without entropy =      -18.44257768  energy(sigma->0) =      -18.45936827


--------------------------------------------------------------------------------------------------------




 average (electrostatic) potential at core
  the test charge radii are     1.2192  1.0638  0.7215  0.5201
  (the norm of the test charge is              1.0000)
       1 -33.3069       2 -79.3368       3 -66.1820       4 -66.1820       5 -70.1203
       6 -47.0021
 
 
 
 E-fermi :   5.7490     XC(G=0): -10.7100     alpha+bet :-14.2558

 val. band max:        5.5258785534   @ k =   0.0000   0.0000   0.0000
 cond. band min:       5.8208157906   @ k =   0.0000   0.0000   0.0000
 fundamental gap:      0.2949372372
 Fermi energy:         5.7489750987

 k-point     1 :       0.0000    0.0000    0.0000
  band No.  band energies     occupation 
      1     -44.8858      2.00000
      2     -25.1020      2.00000
      3     -22.3083      2.00000
      4     -22.3083      2.00000
      5     -21.3627      2.00000
      6     -15.1273      2.00000
      7     -10.4232      2.00000
      8     -10.1489      2.00000
      9      -6.5713      2.00000
     10      -6.5713      2.00000
     11      -6.3533      2.00000
     12      -0.8486      2.00000
     13       1.7452      2.00000
     14       1.7452      2.00000
     15       4.3949      2.00000
     16       4.3949      2.00000
     17       4.5409      2.00000
     18       4.7393      2.00000
     19       5.5259      2.06667
     20       5.5259      2.06667
     21       5.8208      0.43333
     22       5.8208      0.43333
     23       6.7602     -0.00000
     24       7.0209     -0.00000
     25       8.7249     -0.00000
     26       8.9007     -0.00000
     27      10.3237      0.00000
     28      10.9509      0.00000
     29      12.1453      0.00000
     30      12.3210      0.00000
     31      12.3210      0.00000
     32      18.8043      0.00000
     33      19.5467      0.00000
     34      19.5645      0.00000
     35      19.5645      0.00000
     36      21.3392      0.00000
     37      23.4817      0.00000
     38      23.4817      0.00000
     39      23.6197      0.00000
     40      24.6387      0.00000


--------------------------------------------------------------------------------------------------------


 soft charge-density along one line, spin component           1
         0         1         2         3         4         5         6         7         8         9
 total charge-density along one line
 
 pseudopotential strength for first ion, spin component:           1
  0.910  -4.771  -0.000   0.002   0.000  -0.000   0.000   0.000
 -4.771   0.499   0.000  -0.002  -0.000  -0.000   0.001   0.000
 -0.000   0.000  -7.730   0.000   0.000   4.404   0.000   0.000
  0.002  -0.002   0.000  -7.738   0.000   0.000   4.392   0.000
  0.000  -0.000   0.000   0.000  -7.730   0.000   0.000   4.404
 -0.000  -0.000   4.404   0.000   0.000   6.850  -0.000  -0.000
  0.000   0.001   0.000   4.392   0.000  -0.000   6.861  -0.000
  0.000   0.000   0.000   0.000   4.404  -0.000  -0.000   6.850
  0.000  -0.000   0.000   0.000  -0.000   0.000   0.000  -0.000
  0.000  -0.000   0.001  -0.000   0.000   0.001  -0.000   0.000
 -0.005   0.004   0.000   0.000  -0.000   0.000  -0.000  -0.000
  0.000  -0.000   0.000   0.000   0.001   0.000   0.000   0.001
  0.000  -0.000   0.000  -0.000  -0.000   0.000  -0.000   0.000
  0.000  -0.000   0.000   0.000  -0.000   0.000   0.000  -0.000
  0.000  -0.000   0.001  -0.000   0.000   0.001  -0.000   0.000
 -0.007   0.006   0.000   0.000  -0.000   0.000  -0.001   0.000
  0.000  -0.000   0.000   0.000   0.001   0.000   0.000   0.001
  0.000  -0.000   0.000  -0.000   0.000   0.000  -0.000  -0.000
 total augmentation occupancy for first ion, spin component:           1
  2.004   0.027  -0.000  -0.000   0.000   0.000   0.000   0.000   0.000   0.000  -0.015  -0.000   0.000   0.000   0.000   0.002
  0.027   0.072   0.000   0.003   0.000   0.000   0.002   0.000   0.000   0.000   0.007   0.000  -0.000   0.000  -0.000  -0.006
 -0.000  -0.000   2.055   0.000   0.000  -0.020   0.000   0.000   0.000  -0.019   0.000   0.000   0.000   0.000   0.009   0.000
 -0.000   0.003   0.000   2.058   0.000   0.000  -0.029   0.000   0.000   0.000   0.016   0.000  -0.000   0.000   0.000  -0.006
  0.000   0.000   0.000   0.000   2.055   0.000   0.000  -0.020   0.000   0.000   0.000  -0.019   0.000  -0.000   0.000   0.000
  0.000  -0.000  -0.020   0.000   0.000   0.013   0.000   0.000  -0.000   0.015   0.000   0.000  -0.000   0.000  -0.007  -0.000
  0.000   0.002   0.000  -0.029   0.000   0.000   0.015   0.000   0.000   0.000  -0.010   0.000   0.000   0.000  -0.000   0.004
  0.000   0.000   0.000   0.000  -0.020   0.000   0.000   0.013   0.000  -0.000   0.000   0.015  -0.000   0.000   0.000   0.000
  0.000   0.000   0.000   0.000   0.000  -0.000   0.000   0.000   0.000   0.000   0.000   0.000   0.000  -0.000   0.000   0.000
  0.000   0.000  -0.019   0.000   0.000   0.015  -0.000  -0.000   0.000   0.383  -0.000   0.000   0.000  -0.000  -0.168   0.000
 -0.015   0.007   0.000   0.016   0.000   0.000  -0.010   0.000   0.000  -0.000   0.413   0.000  -0.000   0.000   0.000  -0.238
 -0.000   0.000   0.000   0.000  -0.019   0.000   0.000   0.015   0.000   0.000   0.000   0.383   0.000   0.000   0.000  -0.000
  0.000  -0.000   0.000  -0.000   0.000  -0.000   0.000  -0.000   0.000   0.000  -0.000   0.000   0.486   0.000   0.000   0.000
  0.000   0.000   0.000   0.000  -0.000  -0.000   0.000   0.000  -0.000  -0.000   0.000   0.000   0.000   0.000   0.000   0.000
  0.000  -0.000   0.009   0.000   0.000  -0.007   0.000   0.000   0.000  -0.168   0.000   0.000  -0.000   0.000   0.074   0.000
  0.002  -0.006   0.000  -0.006   0.000  -0.000   0.004   0.000   0.000   0.000  -0.238  -0.000   0.000   0.000   0.000   0.138
  0.000   0.000   0.000   0.000   0.009   0.000   0.000  -0.007   0.000   0.000   0.000  -0.168  -0.000   0.000   0.000   0.000
 -0.000   0.000  -0.000   0.000  -0.000  -0.000  -0.000  -0.000   0.000   0.000   0.000   0.000  -0.285  -0.000   0.000  -0.000


------------------------ aborting loop because EDIFF is reached ----------------------------------------


    CHARGE:  cpu time      0.0022: real time      0.0022
    FORLOC:  cpu time      0.0006: real time      0.0006
    FORNL :  cpu time      0.0025: real time      0.0025
    STRESS:  cpu time      0.0126: real time      0.0127
    FORCOR:  cpu time      0.0038: real time      0.0038
    FORHAR:  cpu time      0.0012: real time      0.0013
    MIXING:  cpu time      0.0004: real time      0.0004
    OFIELD:  cpu time      0.0003: real time      0.0003

  FORCE on cell =-STRESS in cart. coord.  units (eV):
  Direction    XX          YY          ZZ          XY          YZ          ZX
  --------------------------------------------------------------------------------------
  Alpha Z   247.70706   247.70706   247.70706
  Ewald    -963.74109  -963.74109  -733.84665     0.00000    -0.00000     0.00000
  Hartree   238.93357   238.93357   284.35434    -0.00000    -0.00000    -0.00000
  E(xc)    -182.66468  -182.66468  -181.90672    -0.00000     0.00000    -0.00000
  Local     -24.37229   -24.37229  -239.43745    -0.00000     0.00000    -0.00000
  n-local  -110.61767  -110.61766  -112.74544    -0.00000    -0.00000    -0.00000
  augment    22.88217    22.88217    21.54535     0.00000     0.00000     0.00000
  Kinetic   790.04641   790.04632   770.92420    -0.00001     0.00000     0.00000
  Fock        0.00000     0.00000     0.00000     0.00000     0.00000     0.00000
  -------------------------------------------------------------------------------------
  Total      18.17343    18.17343    56.59468     0.00000     0.00000     0.00000
  in kB     395.26065   395.26065  1230.89896     0.00000     0.00000     0.00000
  external pressure =      673.81 kB  Pullay stress =        0.00 kB


 VOLUME and BASIS-vectors are now :
 -----------------------------------------------------------------------------
  energy-cutoff  :      400.00
  volume of cell :       73.67
      direct lattice vectors                 reciprocal lattice vectors
     4.192000000  0.000000000  0.000000000     0.238549618  0.000000000  0.000000000
     0.000000000  4.192000000  0.000000000     0.000000000  0.238549618  0.000000000
     0.000000000  0.000000000  4.192000000     0.000000000  0.000000000  0.238549618

  length of vectors
     4.192000000  4.192000000  4.192000000     0.238549618  0.238549618  0.238549618


 FORCES acting on ions
    electron-ion (+dipol)            ewald-force                    non-local-force                 convergence-correction
 -----------------------------------------------------------------------------------------------
   -.617E-14 -.372E-14 0.541E+01   0.844E-14 -.420E-14 -.562E+01   -.110E-22 -.142E-22 0.632E-01   0.420E-14 -.106E-14 -.982E-02
   0.179E-12 -.214E-11 -.985E+02   -.161E-13 0.161E-13 0.120E+03   0.150E-22 -.131E-22 -.329E+01   -.209E-13 0.173E-13 -.234E-01
   0.186E-12 -.371E-13 -.147E+01   -.381E-15 -.187E-13 0.730E+01   -.308E-22 0.292E-22 -.320E+01   -.200E-13 -.793E-14 0.145E-01
   -.361E-14 0.189E-12 -.147E+01   0.857E-14 0.106E-14 0.730E+01   0.379E-22 0.519E-22 -.320E+01   -.469E-15 0.133E-13 0.145E-01
   0.188E-12 -.176E-11 0.542E+02   -.411E-15 0.324E-14 -.883E+02   -.266E-22 -.336E-23 0.425E+02   -.759E-15 0.989E-14 -.672E-02
   0.181E-13 -.233E-12 0.126E+02   0.186E-15 0.187E-14 -.409E+02   0.157E-22 -.458E-23 -.368E+01   0.805E-15 -.146E-14 0.115E-01
 -----------------------------------------------------------------------------------------------
   0.561E-12 -.398E-11 -.292E+02   0.318E-15 -.637E-15 0.142E-13   0.189E-24 0.459E-22 0.292E+02   -.371E-13 0.300E-13 0.662E-03
 
 
 POSITION                                       TOTAL-FORCE (eV/Angst)
 -----------------------------------------------------------------------------------
      0.00000      0.00000      0.00000        -0.000000     -0.000000     -0.152421
      2.09600      2.09600      2.09600         0.000000      0.000000     18.422845
      2.09600      0.00000      2.09600        -0.000000     -0.000000      2.646465
      0.00000      2.09600      2.09600        -0.000000     -0.000000      2.646465
      2.09600      2.09600      0.00000        -0.000000     -0.000000      8.422922
      2.09600      2.09600      0.96000        -0.000000     -0.000000    -31.986276
 -----------------------------------------------------------------------------------
    total drift:                                0.000000     -0.000000     -0.014142


--------------------------------------------------------------------------------------------------------



  FREE ENERGIE OF THE ION-ELECTRON SYSTEM (eV)
  ---------------------------------------------------
  free  energy   TOTEN  =       -18.46776356 eV

  energy  without entropy=      -18.44257768  energy(sigma->0) =      -18.45936827
 


--------------------------------------------------------------------------------------------------------


    POTLOK:  cpu time      0.0048: real time      0.0048


--------------------------------------------------------------------------------------------------------


 stress matrix after NEB project (eV)
     18.17343      0.00000      0.00000
      0.00000     18.17343      0.00000
      0.00000      0.00000     56.59468
  FORCES: max atom, RMS    31.986276   15.532222
  FORCE total and by dimension   38.046018   31.986276
  Stress total and by dimension   62.157101   56.594685
 writing wavefunctions
     LOOP+:  cpu time      0.5230: real time      0.6261
    4ORBIT:  cpu time      0.0000: real time      0.0000

 total amount of memory used by VASP MPI-rank0    32145. kBytes
=======================================================================

   base      :      30000. kBytes
   nonl-proj :        913. kBytes
   fftplans  :        212. kBytes
   grid      :        904. kBytes
   one-center:         93. kBytes
   wavefun   :         23. kBytes
 
  
  
 General timing and accounting informations for this job:
 ========================================================
  
                  Total CPU time used (sec):        1.259
                            User time (sec):        0.868
                          System time (sec):        0.391
                         Elapsed time (sec):        1.817
  
                   Maximum memory used (kb):      166404.
                   Average memory used (kb):          N/A
  
                          Minor page faults:        22587
                          Major page faults:            0
                 Voluntary context switches:         1197
