 running   40 mpi-ranks, on    1 nodes
 distrk:  each k-point on   40 cores,    1 groups
 distr:  one band on    1 cores,   40 groups
 vasp.6.4.3 19Mar24 (build Jul 09 2024 15:45:28) complex                        
  
 POSCAR found type information on POSCAR BaZrO H 
 POSCAR found :  4 types and       6 ions
 scaLAPACK will be used
 -----------------------------------------------------------------------------
|                                                                             |
|           W    W    AA    RRRRR   N    N  II  N    N   GGGG   !!!           |
|           W    W   A  A   R    R  NN   N  II  NN   N  G    G  !!!           |
|           W    W  A    A  R    R  N N  N  II  N N  N  G       !!!           |
|           W WW W  AAAAAA  RRRRR   N  N N  II  N  N N  G  GGG   !            |
|           WW  WW  A    A  R   R   N   NN  II  N   NN  G    G                |
|           W    W  A    A  R    R  N    N  II  N    N   GGGG   !!!           |
|                                                                             |
|     For optimal performance we recommend to set                             |
|       NCORE = 2 up to number-of-cores-per-socket                            |
|     NCORE specifies how many cores store one orbital (NPAR=cpu/NCORE).      |
|     This setting can greatly improve the performance of VASP for DFT.       |
|     The default, NCORE=1 might be grossly inefficient on modern             |
|     multi-core architectures or massively parallel machines. Do your        |
|     own testing! More info at https://www.vasp.at/wiki/index.php/NCORE      |
|     Unfortunately you need to use the default for GW and RPA                |
|     calculations (for HF NCORE is supported but not extensively tested      |
|     yet).                                                                   |
|                                                                             |
 -----------------------------------------------------------------------------

 LDA part: xc-table for (Slater+PW92), standard interpolation
 POSCAR found type information on POSCAR BaZrO H 
 POSCAR found :  4 types and       6 ions
 -----------------------------------------------------------------------------
|                                                                             |
|           W    W    AA    RRRRR   N    N  II  N    N   GGGG   !!!           |
|           W    W   A  A   R    R  NN   N  II  NN   N  G    G  !!!           |
|           W    W  A    A  R    R  N N  N  II  N N  N  G       !!!           |
|           W WW W  AAAAAA  RRRRR   N  N N  II  N  N N  G  GGG   !            |
|           WW  WW  A    A  R   R   N   NN  II  N   NN  G    G                |
|           W    W  A    A  R    R  N    N  II  N    N   GGGG   !!!           |
|                                                                             |
|     The distance between some ions is very small. Please check the          |
|     nearest-neighbor list in the OUTCAR file.                               |
|     I HOPE YOU KNOW WHAT YOU ARE DOING!                                     |
|                                                                             |
 -----------------------------------------------------------------------------

 POSCAR, INCAR and KPOINTS ok, starting setup
 FFT: planning ... GRIDC
 FFT: planning ... GRID_SOFT
 FFT: planning ... GRID
 WAVECAR not read
 entering main loop
       N       E                     dE             d eps       ncg     rms          rms(c)
DAV:   1     0.128227308965E+03    0.12823E+03   -0.22379E+04    80   0.813E+02
DAV:   2    -0.295633717805E+02   -0.15779E+03   -0.15776E+03   120   0.167E+02
DAV:   3    -0.303899823922E+02   -0.82661E+00   -0.82659E+00    80   0.155E+01
DAV:   4    -0.303935029821E+02   -0.35206E-02   -0.35206E-02   120   0.788E-01
DAV:   5    -0.303935057591E+02   -0.27770E-05   -0.27764E-05    80   0.197E-02    0.256E+01
DAV:   6    -0.188926247389E+02    0.11501E+02   -0.60117E+01    80   0.286E+01    0.120E+01
DAV:   7    -0.185525546607E+02    0.34007E+00   -0.62825E-01   160   0.418E+00    0.670E+00
DAV:   8    -0.184688500887E+02    0.83705E-01   -0.41266E-01    80   0.349E+00    0.713E-01
DAV:   9    -0.184752363670E+02   -0.63863E-02   -0.16552E-01   160   0.876E-01    0.160E+00
DAV:  10    -0.184712164168E+02    0.40200E-02   -0.20498E-01    80   0.711E-01    0.417E-01
DAV:  11    -0.184700868170E+02    0.11296E-02   -0.78613E-03   160   0.311E-01    0.343E-01
DAV:  12    -0.184684647754E+02    0.16220E-02   -0.37292E-03    80   0.153E-01    0.251E-01
DAV:  13    -0.184678149231E+02    0.64985E-03   -0.73441E-03   160   0.195E-01    0.107E-01
DAV:  14    -0.184677635609E+02    0.51362E-04   -0.88831E-04    80   0.616E-02
   1 F= -.18467764E+02 E0= -.18459368E+02  d E =-.251859E-01
 writing wavefunctions
