<?xml version="1.0" encoding="ISO-8859-1"?>
<modeling>
 <generator>
  <i name="program" type="string">vasp </i>
  <i name="version" type="string">6.4.3  </i>
  <i name="subversion" type="string">19Mar24 (build Jul 09 2024 15:45:28) complex                          parallel </i>
  <i name="platform" type="string">LinuxIFC </i>
  <i name="date" type="string">2024 10 30 </i>
  <i name="time" type="string">14:49:31 </i>
 </generator>
 <incar>
  <i type="string" name="PREC">normal</i>
  <i type="int" name="IBRION">    -1</i>
  <i type="int" name="NSW">     0</i>
  <i type="string" name="GGA">PE</i>
 </incar>
 <primitive_cell>
  <structure name="primitive_cell" >
   <crystal>
    <varray name="basis" >
     <v>       4.19200000       0.00000000       0.00000000 </v>
     <v>       0.00000000       4.19200000       0.00000000 </v>
     <v>       0.00000000       0.00000000       4.19200000 </v>
    </varray>
    <i name="volume">     73.66544589 </i>
    <varray name="rec_basis" >
     <v>       0.23854962       0.00000000       0.00000000 </v>
     <v>       0.00000000       0.23854962       0.00000000 </v>
     <v>       0.00000000       0.00000000       0.23854962 </v>
    </varray>
   </crystal>
   <varray name="positions" >
    <v>       0.00000000       0.00000000       0.00000000 </v>
    <v>       0.50000000       0.50000000       0.50000000 </v>
    <v>       0.50000000       0.00000000       0.50000000 </v>
    <v>       0.00000000       0.50000000       0.50000000 </v>
    <v>       0.50000000       0.50000000       0.00000000 </v>
    <v>       0.50000000       0.50000000       0.22900763 </v>
   </varray>
  </structure>
  <varray name="primitive_index" >
   <v type="int" >        1 </v>
   <v type="int" >        2 </v>
   <v type="int" >        3 </v>
   <v type="int" >        4 </v>
   <v type="int" >        5 </v>
   <v type="int" >        6 </v>
  </varray>
 </primitive_cell>
 <kpoints>
  <generation param="Monkhorst-Pack">
   <v type="int" name="divisions">       1        1        1 </v>
   <v name="usershift">      0.00000000       0.00000000       0.00000000 </v>
   <v name="genvec1">      1.00000000       0.00000000       0.00000000 </v>
   <v name="genvec2">      0.00000000       1.00000000       0.00000000 </v>
   <v name="genvec3">      0.00000000       0.00000000       1.00000000 </v>
   <v name="shift">      0.00000000       0.00000000       0.00000000 </v>
  </generation>
  <varray name="kpointlist" >
   <v>       0.00000000       0.00000000       0.00000000 </v>
  </varray>
  <varray name="weights" >
   <v>       1.00000000 </v>
  </varray>
 </kpoints>
 <parameters>
  <separator name="general" >
   <i type="string" name="SYSTEM">unknown system</i>
   <i type="logical" name="LCOMPAT"> F  </i>
  </separator>
  <separator name="electronic" >
   <i type="string" name="PREC">normal</i>
   <i name="ENMAX">    400.00000000</i>
   <i name="ENAUG">    605.39200000</i>
   <i name="EDIFF">      0.00010000</i>
   <i type="int" name="IALGO">    38</i>
   <i type="int" name="IWAVPR">    10</i>
   <i type="int" name="NBANDS">    40</i>
   <i type="int" name="NBANDSLOW">    -1</i>
   <i type="int" name="NBANDSHIGH">    -1</i>
   <i name="NELECT">     41.00000000</i>
   <i type="int" name="TURBO">     0</i>
   <i type="int" name="IRESTART">     0</i>
   <i type="int" name="NREBOOT">     0</i>
   <i type="int" name="NMIN">     0</i>
   <i name="EREF">      0.00000000</i>
   <separator name="electronic smearing" >
    <i type="int" name="ISMEAR">     1</i>
    <i name="SIGMA">      0.20000000</i>
    <i name="KSPACING">      0.50000000</i>
    <i type="logical" name="KGAMMA"> T  </i>
    <i type="logical" name="KBLOWUP"> T  </i>
   </separator>
   <separator name="electronic projectors" >
    <i type="logical" name="LREAL"> F  </i>
    <v name="ROPT">      0.00000000      0.00000000      0.00000000      0.00000000</v>
    <i type="int" name="LMAXPAW">  -100</i>
    <i type="int" name="LMAXMIX">     2</i>
    <i type="logical" name="NLSPLINE"> F  </i>
   </separator>
   <separator name="electronic startup" >
    <i type="int" name="ISTART">     0</i>
    <i type="int" name="ICHARG">     2</i>
    <i type="int" name="INIWAV">     1</i>
   </separator>
   <separator name="electronic spin" >
    <i type="int" name="ISPIN">     1</i>
    <i type="logical" name="LNONCOLLINEAR"> F  </i>
    <v name="MAGMOM">      1.00000000      1.00000000      1.00000000      1.00000000      1.00000000      1.00000000</v>
    <i name="NUPDOWN">     -1.00000000</i>
    <i type="logical" name="LSORBIT"> F  </i>
    <v name="SAXIS">      0.00000000      0.00000000      1.00000000</v>
    <i type="logical" name="LSPIRAL"> F  </i>
    <v name="QSPIRAL">      0.00000000      0.00000000      0.00000000</v>
    <i type="logical" name="LZEROZ"> F  </i>
   </separator>
   <separator name="electronic exchange-correlation" >
    <i type="logical" name="LASPH"> F  </i>
   </separator>
   <separator name="electronic convergence" >
    <i type="int" name="NELM">    60</i>
    <i type="int" name="NELMDL">    -5</i>
    <i type="int" name="NELMIN">     2</i>
    <i name="ENINI">    400.00000000</i>
    <separator name="electronic convergence detail" >
     <i type="logical" name="LDIAG"> T  </i>
     <i type="logical" name="LSUBROT"> F  </i>
     <i name="WEIMIN">      0.00000000</i>
     <i name="EBREAK">      0.00000063</i>
     <i name="DEPER">      0.30000000</i>
     <i type="int" name="NRMM">     4</i>
     <i name="TIME">      0.40000000</i>
    </separator>
   </separator>
   <separator name="electronic mixer" >
    <i name="AMIX">      0.40000000</i>
    <i name="BMIX">      1.00000000</i>
    <i name="AMIN">      0.10000000</i>
    <i name="AMIX_MAG">      1.60000000</i>
    <i name="BMIX_MAG">      1.00000000</i>
    <separator name="electronic mixer details" >
     <i type="int" name="IMIX">     4</i>
     <i type="logical" name="MIXFIRST"> F  </i>
     <i type="int" name="MAXMIX">   -45</i>
     <i name="WC">    100.00000000</i>
     <i type="int" name="INIMIX">     1</i>
     <i type="int" name="MIXPRE">     1</i>
     <i type="int" name="MREMOVE">     5</i>
    </separator>
   </separator>
   <separator name="electronic dipolcorrection" >
    <i type="logical" name="LDIPOL"> F  </i>
    <i type="logical" name="LMONO"> F  </i>
    <i type="int" name="IDIPOL">     0</i>
    <i name="EPSILON">      1.00000000</i>
    <v name="DIPOL">   -100.00000000   -100.00000000   -100.00000000</v>
    <i name="EFIELD">      0.00000000</i>
    <i type="logical" name="LVACPOTAV"> F  </i>
   </separator>
  </separator>
  <separator name="grids" >
   <i type="int" name="NGX">    24</i>
   <i type="int" name="NGY">    24</i>
   <i type="int" name="NGZ">    24</i>
   <i type="int" name="NGXF">    48</i>
   <i type="int" name="NGYF">    48</i>
   <i type="int" name="NGZF">    48</i>
   <i type="logical" name="ADDGRID"> F  </i>
  </separator>
  <separator name="ionic" >
   <i type="int" name="NSW">     0</i>
   <i type="int" name="IBRION">    -1</i>
   <i type="int" name="MDALGO">     0</i>
   <i type="int" name="ISIF">     2</i>
   <i name="PSTRESS">      0.00000000</i>
   <i name="EDIFFG">      0.00100000</i>
   <i type="int" name="NFREE">     0</i>
   <i name="POTIM">      0.50000000</i>
   <i name="SMASS">     -3.00000000</i>
   <i name="SCALEE">      1.00000000</i>
  </separator>
  <separator name="ionic md" >
   <i name="TEBEG">      0.00010000</i>
   <i name="TEEND">      0.00010000</i>
   <i type="int" name="NBLOCK">     1</i>
   <i type="int" name="KBLOCK">     1</i>
   <i type="int" name="NPACO">   256</i>
   <i name="APACO">     10.00000000</i>
  </separator>
  <separator name="symmetry" >
   <i type="int" name="ISYM">     2</i>
   <i name="SYMPREC">      0.00001000</i>
  </separator>
  <separator name="dos" >
   <i type="int" name="LORBIT">     0</i>
   <v name="RWIGS">     -1.00000000     -1.00000000     -1.00000000     -1.00000000</v>
   <i type="int" name="NEDOS">   301</i>
   <i name="EMIN">     10.00000000</i>
   <i name="EMAX">    -10.00000000</i>
   <i name="EFERMI">      0.00000000</i>
  </separator>
  <separator name="writing" >
   <i type="int" name="NWRITE">     2</i>
   <i type="logical" name="LWAVE"> T  </i>
   <i type="logical" name="LDOWNSAMPLE"> F  </i>
   <i type="logical" name="LCHARG"> T  </i>
   <i type="logical" name="LPARD"> F  </i>
   <i type="logical" name="LVTOT"> F  </i>
   <i type="logical" name="LVHAR"> F  </i>
   <i type="logical" name="LELF"> F  </i>
   <i type="logical" name="LOPTICS"> F  </i>
   <v name="STM">      0.00000000      0.00000000      0.00000000      0.00000000      0.00000000      0.00000000      0.00000000</v>
  </separator>
  <separator name="performance" >
   <i type="int" name="NPAR">    40</i>
   <i type="int" name="NSIM">     4</i>
   <i type="int" name="NBLK">    -1</i>
   <i type="logical" name="LPLANE"> T  </i>
   <i type="logical" name="LSCALAPACK"> T  </i>
   <i type="logical" name="LSCAAWARE"> T  </i>
   <i type="logical" name="LSCALU"> F  </i>
   <i type="logical" name="LASYNC"> F  </i>
   <i type="logical" name="LORBITALREAL"> F  </i>
  </separator>
  <separator name="miscellaneous" >
   <i type="int" name="IDIOT">     3</i>
   <i type="int" name="PHON_NSTRUCT">    -1</i>
   <i type="logical" name="LMUSIC"> F  </i>
   <v name="POMASS">    137.32700000     91.22400000     16.00000000      1.00000000</v>
   <v name="DARWINR">      0.00000000      0.00000000      0.00000000      0.00000000</v>
   <v name="DARWINV">      1.00000000      1.00000000      1.00000000      1.00000000</v>
   <i type="logical" name="LCORR"> T  </i>
  </separator>
  <i type="logical" name="GGA_COMPAT"> T  </i>
  <i type="logical" name="LBERRY"> F  </i>
  <i type="int" name="ICORELEVEL">     0</i>
  <i type="logical" name="LDAU"> F  </i>
  <i type="int" name="I_CONSTRAINED_M">     0</i>
  <separator name="electronic exchange-correlation" >
   <i type="string" name="GGA    ">PE</i>
   <i type="string" name="XC_C">1</i>
   <i type="int" name="VOSKOWN">     0</i>
   <i type="logical" name="LHFCALC"> F  </i>
   <i type="string" name="PRECFOCK"></i>
   <i type="logical" name="LSYMGRAD"> F  </i>
   <i type="logical" name="LHFONE"> F  </i>
   <i type="logical" name="LRHFCALC"> F  </i>
   <i type="logical" name="LTHOMAS"> F  </i>
   <i type="logical" name="LMODELHF"> F  </i>
   <i type="logical" name="LFOCKACE"> F  </i>
   <i name="ENCUT4O">     -1.00000000</i>
   <i type="int" name="EXXOEP">     0</i>
   <i type="int" name="FOURORBIT">     0</i>
   <i name="AEXX">      0.00000000</i>
   <i name="HFALPHA">      0.00000000</i>
   <i name="MCALPHA">      0.00000000</i>
   <i name="ALDAX">      1.00000000</i>
   <i name="AGGAX">      1.00000000</i>
   <i name="AMGGAX">      1.00000000</i>
   <i name="ALDAC">      1.00000000</i>
   <i name="AGGAC">      1.00000000</i>
   <i name="AMGGAC">      1.00000000</i>
   <i type="int" name="NKREDX">     1</i>
   <i type="int" name="NKREDY">     1</i>
   <i type="int" name="NKREDZ">     1</i>
   <i type="logical" name="SHIFTRED"> F  </i>
   <i type="logical" name="ODDONLY"> F  </i>
   <i type="logical" name="EVENONLY"> F  </i>
   <i type="int" name="LMAXFOCK">     0</i>
   <i type="int" name="NMAXFOCKAE">     0</i>
   <i type="logical" name="LFOCKAEDFT"> F  </i>
   <i name="HFSCREEN">      0.00000000</i>
   <i name="HFSCREENC">      0.00000000</i>
   <i type="int" name="NBANDSGWLOW">     0</i>
  </separator>
  <separator name="vdW DFT" >
   <i type="logical" name="LUSE_VDW"> F  </i>
   <i type="int" name="IVDW_NL">    -1</i>
   <i type="logical" name="LSPIN_VDW"> F  </i>
   <i name="ZAB_VDW">     -0.84910000</i>
   <i name="GAMMA_VDW">      1.39626340</i>
   <i name="ALPHA_VDW">      0.00000000</i>
   <i name="PARAM1">      0.12340000</i>
   <i name="PARAM2">      1.00000000</i>
   <i name="BPARAM">      6.30000000</i>
   <i name="CPARAM">      0.00930000</i>
  </separator>
  <separator name="model GW" >
   <i type="int" name="MODEL_GW">     0</i>
   <i name="MODEL_EPS0">      7.36654459</i>
   <i name="MODEL_ALPHA">      1.00000000</i>
  </separator>
  <separator name="linear response parameters" >
   <i type="logical" name="LEPSILON"> F  </i>
   <i type="logical" name="LRPA"> F  </i>
   <i type="logical" name="LNABLA"> F  </i>
   <i type="logical" name="LVEL"> F  </i>
   <i name="CSHIFT">      0.10000000</i>
   <i name="OMEGAMAX">     -1.00000000</i>
   <i name="DEG_THRESHOLD">      0.00200000</i>
   <i name="RTIME">     -0.10000000</i>
   <i name="WPLASMAI">      0.00000000</i>
   <v name="DFIELD">      0.00000000      0.00000000      0.00000000</v>
   <v name="WPLASMA">      0.00000000      0.00000000      0.00000000      0.00000000      0.00000000      0.00000000      0.00000000      0.00000000      0.00000000</v>
  </separator>
  <separator name="orbital magnetization" >
   <i type="logical" name="NUCIND"> F  </i>
   <v name="MAGPOS">      0.00000000      0.00000000      0.00000000</v>
   <i type="logical" name="LNICSALL"> T  </i>
   <i type="logical" name="ORBITALMAG"> F  </i>
   <i type="logical" name="LMAGBLOCH"> F  </i>
   <i type="logical" name="LCHIMAG"> F  </i>
   <i type="logical" name="LGAUGE"> T  </i>
   <i type="int" name="MAGATOM">     0</i>
   <v name="MAGDIPOL">      0.00000000      0.00000000      0.00000000</v>
   <v name="AVECCONST">      0.00000000      0.00000000      0.00000000</v>
  </separator>
  <separator name="response functions" >
   <i type="logical" name="LALL_IN_ONE"> F  </i>
   <i type="int" name="IALL_IN_ONE">    -1</i>
   <i type="int" name="NBANDS_WAVE">    -1</i>
   <i type="logical" name="LFINITE_TEMPERATURE"> F  </i>
   <i type="logical" name="LADDER"> F  </i>
   <i type="logical" name="LRPAFORCE"> F  </i>
   <i type="logical" name="LFXC"> F  </i>
   <i type="logical" name="LHARTREE"> T  </i>
   <i type="int" name="IBSE">     0</i>
   <v type="int" name="KPOINT">    -1     0     0     0</v>
   <i type="logical" name="LTCTC"> F  </i>
   <i type="logical" name="LTCTE"> F  </i>
   <i type="logical" name="LTETE"> F  </i>
   <i type="logical" name="LTRIPLET"> F  </i>
   <i type="logical" name="LFXCEPS"> F  </i>
   <i type="logical" name="LFXHEG"> F  </i>
   <i type="int" name="NATURALO">     2</i>
   <i type="logical" name="LHOLEGF"> F  </i>
   <i type="logical" name="L2ORDER"> F  </i>
   <i type="logical" name="LDMP1"> F  </i>
   <i type="logical" name="LMP2LT"> F  </i>
   <i type="logical" name="LSMP2LT"> F  </i>
   <i type="logical" name="LGWLF"> F  </i>
   <i name="ENCUTGW">     -1.60000002</i>
   <i name="ENCUTGWSOFT">     -1.60000002</i>
   <i name="ENCUTLF">     -1.00000000</i>
   <i type="logical" name="ESF_SPLINES"> F  </i>
   <i name="ESF_CONV">      0.01000000</i>
   <i type="int" name="ESF_NINTER">    15</i>
   <i type="int" name="LMAXMP2">    -1</i>
   <i name="SCISSOR">      0.00000000</i>
   <i type="int" name="NOMEGA">     0</i>
   <i type="int" name="NOMEGAR">     0</i>
   <i type="int" name="NBANDSGW">    -1</i>
   <i type="int" name="NBANDSO">    -1</i>
   <i type="int" name="NBANDSV">    -1</i>
   <i type="int" name="NELMGW">     1</i>
   <i type="int" name="NELMHF">     1</i>
   <i type="int" name="DIM">     3</i>
   <i type="int" name="IESPILON">     4</i>
   <i type="int" name="ANTIRES">     0</i>
   <i name="OMEGAMAX">    -30.00000000</i>
   <i name="OMEGAMIN">    -30.00000000</i>
   <i name="OMEGATL">   -200.00000000</i>
   <i type="int" name="OMEGAGRID">     0</i>
   <i name="CSHIFT">     -0.10000000</i>
   <i type="logical" name="LSELFENERGY"> F  </i>
   <i type="logical" name="LSPECTRAL"> F  </i>
   <i type="logical" name="LSPECTRALGW"> F  </i>
   <i type="logical" name="LSINGLES"> F  </i>
   <i type="logical" name="LFERMIGW"> F  </i>
   <i type="logical" name="ODDONLYGW"> F  </i>
   <i type="logical" name="EVENONLYGW"> F  </i>
   <i type="int" name="NKREDLFX">     1</i>
   <i type="int" name="NKREDLFY">     1</i>
   <i type="int" name="NKREDLFZ">     1</i>
   <i type="int" name="MAXMEM">  2800</i>
   <i type="int" name="TELESCOPE">     0</i>
   <i type="int" name="NTAUPAR">    -1</i>
   <i type="int" name="NOMEGAPAR">    -1</i>
   <i name="DAMP_NEWTON">      0.80000001</i>
   <i name="LAMBDA">      1.00000000</i>
  </separator>
  <separator name="External order field" >
   <i name="OFIELD_KAPPA">      0.00000000</i>
   <v name="OFIELD_K">      0.00000000      0.00000000      0.00000000</v>
   <i name="OFIELD_Q6_NEAR">      0.00000000</i>
   <i name="OFIELD_Q6_FAR">      0.00000000</i>
   <i name="OFIELD_A">      0.00000000</i>
  </separator>
  <separator name="optional k-points parameters" >
   <i type="int" name="KPOINTS_OPT_MODE">     1</i>
   <i type="logical" name="LKPOINTS_OPT"> F  </i>
  </separator>
 </parameters>
 <atominfo>
  <atoms>       6 </atoms>
  <types>       4 </types>
  <array name="atoms" >
   <dimension dim="1">ion</dimension>
   <field type="string">element</field>
   <field type="int">atomtype</field>
   <set>
    <rc><c>Ba</c><c>   1</c></rc>
    <rc><c>Zr</c><c>   2</c></rc>
    <rc><c>O </c><c>   3</c></rc>
    <rc><c>O </c><c>   3</c></rc>
    <rc><c>O </c><c>   3</c></rc>
    <rc><c>H </c><c>   4</c></rc>
   </set>
  </array>
  <array name="atomtypes" >
   <dimension dim="1">type</dimension>
   <field type="int">atomspertype</field>
   <field type="string">element</field>
   <field>mass</field>
   <field>valence</field>
   <field type="string">pseudopotential</field>
   <set>
    <rc><c>   1</c><c>Ba</c><c>    137.32700000</c><c>     10.00000000</c><c>  PAW_PBE Ba_sv 06Sep2000               </c></rc>
    <rc><c>   1</c><c>Zr</c><c>     91.22400000</c><c>     12.00000000</c><c>  PAW_PBE Zr_sv 04Jan2005               </c></rc>
    <rc><c>   3</c><c>O </c><c>     16.00000000</c><c>      6.00000000</c><c>  PAW_PBE O 08Apr2002                   </c></rc>
    <rc><c>   1</c><c>H </c><c>      1.00000000</c><c>      1.00000000</c><c>  PAW_PBE H 15Jun2001                   </c></rc>
   </set>
  </array>
 </atominfo>
 <structure name="initialpos" >
  <crystal>
   <varray name="basis" >
    <v>       4.19200000       0.00000000       0.00000000 </v>
    <v>       0.00000000       4.19200000       0.00000000 </v>
    <v>       0.00000000       0.00000000       4.19200000 </v>
   </varray>
   <i name="volume">     73.66544589 </i>
   <varray name="rec_basis" >
    <v>       0.23854962       0.00000000       0.00000000 </v>
    <v>       0.00000000       0.23854962       0.00000000 </v>
    <v>       0.00000000       0.00000000       0.23854962 </v>
   </varray>
  </crystal>
  <varray name="positions" >
   <v>       0.00000000       0.00000000       0.00000000 </v>
   <v>       0.50000000       0.50000000       0.50000000 </v>
   <v>       0.50000000       0.00000000       0.50000000 </v>
   <v>       0.00000000       0.50000000       0.50000000 </v>
   <v>       0.50000000       0.50000000       0.00000000 </v>
   <v>       0.50000000       0.50000000       0.22900763 </v>
  </varray>
 </structure>
 <calculation>
  <scstep>
   <time name="dav">    0.03    0.03</time>
   <time name="total">    0.04    0.04</time>
   <energy>
    <i name="alphaZ">    247.70705689 </i>
    <i name="ewald">  -2661.32637194 </i>
    <i name="hartreedc">   -715.25075161 </i>
    <i name="XCdc">    163.93071392 </i>
    <i name="pawpsdc">   2563.18628374 </i>
    <i name="pawaedc">  -2546.99615649 </i>
    <i name="eentropy">     -0.05484728 </i>
    <i name="bandstr">   -217.30586550 </i>
    <i name="atom">   3294.33724724 </i>
    <i name="e_fr_energy">    128.22730897 </i>
    <i name="e_wo_entrp">    128.28215624 </i>
    <i name="e_0_energy">    128.24559139 </i>
   </energy>
  </scstep>
  <scstep>
   <time name="dav">    0.03    0.03</time>
   <time name="total">    0.03    0.03</time>
   <energy>
    <i name="e_fr_energy">    -29.56337178 </i>
    <i name="e_wo_entrp">    -29.48087010 </i>
    <i name="e_0_energy">    -29.53587122 </i>
   </energy>
  </scstep>
  <scstep>
   <time name="dav">    0.01    0.02</time>
   <time name="total">    0.01    0.02</time>
   <energy>
    <i name="e_fr_energy">    -30.38998239 </i>
    <i name="e_wo_entrp">    -30.30746136 </i>
    <i name="e_0_energy">    -30.36247538 </i>
   </energy>
  </scstep>
  <scstep>
   <time name="dav">    0.02    0.03</time>
   <time name="total">    0.02    0.03</time>
   <energy>
    <i name="e_fr_energy">    -30.39350298 </i>
    <i name="e_wo_entrp">    -30.31098200 </i>
    <i name="e_0_energy">    -30.36599599 </i>
   </energy>
  </scstep>
  <scstep>
   <time name="dav">    0.01    0.02</time>
   <time name="total">    0.02    0.03</time>
   <energy>
    <i name="e_fr_energy">    -30.39350576 </i>
    <i name="e_wo_entrp">    -30.31098478 </i>
    <i name="e_0_energy">    -30.36599877 </i>
   </energy>
  </scstep>
  <scstep>
   <time name="dav">    0.01    0.01</time>
   <time name="total">    0.02    0.03</time>
   <energy>
    <i name="e_fr_energy">    -18.89262474 </i>
    <i name="e_wo_entrp">    -18.81010188 </i>
    <i name="e_0_energy">    -18.86511712 </i>
   </energy>
  </scstep>
  <scstep>
   <time name="dav">    0.04    0.04</time>
   <time name="total">    0.05    0.05</time>
   <energy>
    <i name="e_fr_energy">    -18.55255466 </i>
    <i name="e_wo_entrp">    -18.47034263 </i>
    <i name="e_0_energy">    -18.52515065 </i>
   </energy>
  </scstep>
  <scstep>
   <time name="dav">    0.01    0.01</time>
   <time name="total">    0.02    0.03</time>
   <energy>
    <i name="e_fr_energy">    -18.46885009 </i>
    <i name="e_wo_entrp">    -18.43278280 </i>
    <i name="e_0_energy">    -18.45682766 </i>
   </energy>
  </scstep>
  <scstep>
   <time name="dav">    0.03    0.03</time>
   <time name="total">    0.04    0.05</time>
   <energy>
    <i name="e_fr_energy">    -18.47523637 </i>
    <i name="e_wo_entrp">    -18.41048973 </i>
    <i name="e_0_energy">    -18.45365416 </i>
   </energy>
  </scstep>
  <scstep>
   <time name="dav">    0.01    0.01</time>
   <time name="total">    0.02    0.03</time>
   <energy>
    <i name="e_fr_energy">    -18.47121642 </i>
    <i name="e_wo_entrp">    -18.43357006 </i>
    <i name="e_0_energy">    -18.45866763 </i>
   </energy>
  </scstep>
  <scstep>
   <time name="dav">    0.04    0.04</time>
   <time name="total">    0.04    0.05</time>
   <energy>
    <i name="e_fr_energy">    -18.47008682 </i>
    <i name="e_wo_entrp">    -18.44326821 </i>
    <i name="e_0_energy">    -18.46114728 </i>
   </energy>
  </scstep>
  <scstep>
   <time name="dav">    0.01    0.01</time>
   <time name="total">    0.02    0.03</time>
   <energy>
    <i name="e_fr_energy">    -18.46846478 </i>
    <i name="e_wo_entrp">    -18.44582244 </i>
    <i name="e_0_energy">    -18.46091733 </i>
   </energy>
  </scstep>
  <scstep>
   <time name="dav">    0.03    0.03</time>
   <time name="total">    0.04    0.05</time>
   <energy>
    <i name="e_fr_energy">    -18.46781492 </i>
    <i name="e_wo_entrp">    -18.43910031 </i>
    <i name="e_0_energy">    -18.45824339 </i>
   </energy>
  </scstep>
  <scstep>
   <time name="dav">    0.01    0.01</time>
   <time name="total">    0.02    0.02</time>
   <energy>
    <i name="alphaZ">    247.70705689 </i>
    <i name="ewald">  -2661.32637194 </i>
    <i name="hartreedc">   -762.15638764 </i>
    <i name="XCdc">    167.84396413 </i>
    <i name="pawpsdc">   4001.39406199 </i>
    <i name="pawaedc">  -3993.22638953 </i>
    <i name="eentropy">     -0.02518588 </i>
    <i name="bandstr">   -313.01575882 </i>
    <i name="atom">   3294.33724724 </i>
    <i name="e_fr_energy">    -18.46776356 </i>
    <i name="e_wo_entrp">    -18.44257768 </i>
    <i name="e_0_energy">    -18.45936827 </i>
   </energy>
  </scstep>
  <structure>
   <crystal>
    <varray name="basis" >
     <v>       4.19200000       0.00000000       0.00000000 </v>
     <v>       0.00000000       4.19200000       0.00000000 </v>
     <v>       0.00000000       0.00000000       4.19200000 </v>
    </varray>
    <i name="volume">     73.66544589 </i>
    <varray name="rec_basis" >
     <v>       0.23854962       0.00000000       0.00000000 </v>
     <v>       0.00000000       0.23854962       0.00000000 </v>
     <v>       0.00000000       0.00000000       0.23854962 </v>
    </varray>
   </crystal>
   <varray name="positions" >
    <v>       0.00000000       0.00000000       0.00000000 </v>
    <v>       0.50000000       0.50000000       0.50000000 </v>
    <v>       0.50000000       0.00000000       0.50000000 </v>
    <v>       0.00000000       0.50000000       0.50000000 </v>
    <v>       0.50000000       0.50000000       0.00000000 </v>
    <v>       0.50000000       0.50000000       0.22900763 </v>
   </varray>
  </structure>
  <varray name="forces" >
   <v>      -0.00000000      -0.00000000      -0.15242093 </v>
   <v>       0.00000000       0.00000000      18.42284479 </v>
   <v>      -0.00000000      -0.00000000       2.64646481 </v>
   <v>      -0.00000000      -0.00000000       2.64646481 </v>
   <v>      -0.00000000      -0.00000000       8.42292244 </v>
   <v>      -0.00000000      -0.00000000     -31.98627592 </v>
  </varray>
  <varray name="stress" >
   <v>     395.26065408       0.00000000       0.00000000 </v>
   <v>       0.00000000     395.26065408       0.00000000 </v>
   <v>       0.00000000       0.00000000    1230.89895750 </v>
  </varray>
  <energy>
   <i name="e_fr_energy">    -18.46776356 </i>
   <i name="e_wo_entrp">    -18.44257768 </i>
   <i name="e_0_energy">    -18.45936827 </i>
  </energy>
  <time name="totalsc">    0.52    0.63</time>
  <eigenvalues>
   <array>
    <dimension dim="1">band</dimension>
    <dimension dim="2">kpoint</dimension>
    <dimension dim="3">spin</dimension>
    <field>eigene</field>
    <field>occ</field>
    <set>
     <set comment="spin 1">
      <set comment="kpoint 1">
       <r>  -44.8858    1.0000 </r>
       <r>  -25.1020    1.0000 </r>
       <r>  -22.3083    1.0000 </r>
       <r>  -22.3083    1.0000 </r>
       <r>  -21.3627    1.0000 </r>
       <r>  -15.1273    1.0000 </r>
       <r>  -10.4232    1.0000 </r>
       <r>  -10.1489    1.0000 </r>
       <r>   -6.5713    1.0000 </r>
       <r>   -6.5713    1.0000 </r>
       <r>   -6.3533    1.0000 </r>
       <r>   -0.8486    1.0000 </r>
       <r>    1.7452    1.0000 </r>
       <r>    1.7452    1.0000 </r>
       <r>    4.3949    1.0000 </r>
       <r>    4.3949    1.0000 </r>
       <r>    4.5409    1.0000 </r>
       <r>    4.7393    1.0000 </r>
       <r>    5.5259    1.0333 </r>
       <r>    5.5259    1.0333 </r>
       <r>    5.8208    0.2167 </r>
       <r>    5.8208    0.2167 </r>
       <r>    6.7602   -0.0000 </r>
       <r>    7.0209   -0.0000 </r>
       <r>    8.7249   -0.0000 </r>
       <r>    8.9007   -0.0000 </r>
       <r>   10.3237    0.0000 </r>
       <r>   10.9509    0.0000 </r>
       <r>   12.1453    0.0000 </r>
       <r>   12.3210    0.0000 </r>
       <r>   12.3210    0.0000 </r>
       <r>   18.8043    0.0000 </r>
       <r>   19.5467    0.0000 </r>
       <r>   19.5645    0.0000 </r>
       <r>   19.5645    0.0000 </r>
       <r>   21.3392    0.0000 </r>
       <r>   23.4817    0.0000 </r>
       <r>   23.4817    0.0000 </r>
       <r>   23.6197    0.0000 </r>
       <r>   24.6387    0.0000 </r>
      </set>
     </set>
    </set>
   </array>
  </eigenvalues>
  <separator name="orbital magnetization" >
   <v name="MAGDIPOLOUT">      0.00000000      0.00000000      0.00000000</v>
  </separator>
  <dos>
   <i name="efermi">      5.74897510 </i>
   <total>
    <array>
     <dimension dim="1">gridpoints</dimension>
     <dimension dim="2">spin</dimension>
     <field>energy</field>
     <field>total</field>
     <field>integrated</field>
     <set>
      <set comment="spin 1">
       <r>   -48.3620     0.0000     0.0000 </r>
       <r>   -48.1071     0.0000     0.0000 </r>
       <r>   -47.8521     0.0000     0.0000 </r>
       <r>   -47.5972     0.0000     0.0000 </r>
       <r>   -47.3423     0.0000     0.0000 </r>
       <r>   -47.0874     0.0000     0.0000 </r>
       <r>   -46.8324     0.0000     0.0000 </r>
       <r>   -46.5775    -0.0000    -0.0000 </r>
       <r>   -46.3226    -0.0000    -0.0000 </r>
       <r>   -46.0677    -0.0000    -0.0000 </r>
       <r>   -45.8127    -0.0000    -0.0000 </r>
       <r>   -45.5578    -0.0001    -0.0000 </r>
       <r>   -45.3029    -0.0470    -0.0120 </r>
       <r>   -45.0480     0.1033     0.0143 </r>
       <r>   -44.7931     6.6077     1.6988 </r>
       <r>   -44.5381     1.3143     2.0338 </r>
       <r>   -44.2832    -0.1321     2.0002 </r>
       <r>   -44.0283    -0.0007     2.0000 </r>
       <r>   -43.7734    -0.0000     2.0000 </r>
       <r>   -43.5184    -0.0000     2.0000 </r>
       <r>   -43.2635     0.0000     2.0000 </r>
       <r>   -43.0086     0.0000     2.0000 </r>
       <r>   -42.7537     0.0000     2.0000 </r>
       <r>   -42.4987     0.0000     2.0000 </r>
       <r>   -42.2438     0.0000     2.0000 </r>
       <r>   -41.9889     0.0000     2.0000 </r>
       <r>   -41.7340     0.0000     2.0000 </r>
       <r>   -41.4791     0.0000     2.0000 </r>
       <r>   -41.2241     0.0000     2.0000 </r>
       <r>   -40.9692     0.0000     2.0000 </r>
       <r>   -40.7143     0.0000     2.0000 </r>
       <r>   -40.4594     0.0000     2.0000 </r>
       <r>   -40.2044     0.0000     2.0000 </r>
       <r>   -39.9495     0.0000     2.0000 </r>
       <r>   -39.6946     0.0000     2.0000 </r>
       <r>   -39.4397     0.0000     2.0000 </r>
       <r>   -39.1848     0.0000     2.0000 </r>
       <r>   -38.9298     0.0000     2.0000 </r>
       <r>   -38.6749     0.0000     2.0000 </r>
       <r>   -38.4200     0.0000     2.0000 </r>
       <r>   -38.1651     0.0000     2.0000 </r>
       <r>   -37.9101     0.0000     2.0000 </r>
       <r>   -37.6552     0.0000     2.0000 </r>
       <r>   -37.4003     0.0000     2.0000 </r>
       <r>   -37.1454     0.0000     2.0000 </r>
       <r>   -36.8904     0.0000     2.0000 </r>
       <r>   -36.6355     0.0000     2.0000 </r>
       <r>   -36.3806     0.0000     2.0000 </r>
       <r>   -36.1257     0.0000     2.0000 </r>
       <r>   -35.8708     0.0000     2.0000 </r>
       <r>   -35.6158     0.0000     2.0000 </r>
       <r>   -35.3609     0.0000     2.0000 </r>
       <r>   -35.1060     0.0000     2.0000 </r>
       <r>   -34.8511     0.0000     2.0000 </r>
       <r>   -34.5961     0.0000     2.0000 </r>
       <r>   -34.3412     0.0000     2.0000 </r>
       <r>   -34.0863     0.0000     2.0000 </r>
       <r>   -33.8314     0.0000     2.0000 </r>
       <r>   -33.5764     0.0000     2.0000 </r>
       <r>   -33.3215     0.0000     2.0000 </r>
       <r>   -33.0666     0.0000     2.0000 </r>
       <r>   -32.8117     0.0000     2.0000 </r>
       <r>   -32.5568     0.0000     2.0000 </r>
       <r>   -32.3018     0.0000     2.0000 </r>
       <r>   -32.0469     0.0000     2.0000 </r>
       <r>   -31.7920     0.0000     2.0000 </r>
       <r>   -31.5371     0.0000     2.0000 </r>
       <r>   -31.2821     0.0000     2.0000 </r>
       <r>   -31.0272     0.0000     2.0000 </r>
       <r>   -30.7723     0.0000     2.0000 </r>
       <r>   -30.5174     0.0000     2.0000 </r>
       <r>   -30.2625     0.0000     2.0000 </r>
       <r>   -30.0075     0.0000     2.0000 </r>
       <r>   -29.7526     0.0000     2.0000 </r>
       <r>   -29.4977     0.0000     2.0000 </r>
       <r>   -29.2428     0.0000     2.0000 </r>
       <r>   -28.9878     0.0000     2.0000 </r>
       <r>   -28.7329     0.0000     2.0000 </r>
       <r>   -28.4780     0.0000     2.0000 </r>
       <r>   -28.2231     0.0000     2.0000 </r>
       <r>   -27.9681     0.0000     2.0000 </r>
       <r>   -27.7132     0.0000     2.0000 </r>
       <r>   -27.4583     0.0000     2.0000 </r>
       <r>   -27.2034     0.0000     2.0000 </r>
       <r>   -26.9485    -0.0000     2.0000 </r>
       <r>   -26.6935    -0.0000     2.0000 </r>
       <r>   -26.4386    -0.0000     2.0000 </r>
       <r>   -26.1837    -0.0000     2.0000 </r>
       <r>   -25.9288    -0.0000     2.0000 </r>
       <r>   -25.6738    -0.0016     1.9996 </r>
       <r>   -25.4189    -0.1850     1.9524 </r>
       <r>   -25.1640     2.1572     2.5024 </r>
       <r>   -24.9091     6.0401     4.0421 </r>
       <r>   -24.6541    -0.1384     4.0068 </r>
       <r>   -24.3992    -0.0268     4.0000 </r>
       <r>   -24.1443    -0.0000     4.0000 </r>
       <r>   -23.8894    -0.0000     4.0000 </r>
       <r>   -23.6345    -0.0000     4.0000 </r>
       <r>   -23.3795    -0.0000     4.0000 </r>
       <r>   -23.1246    -0.0000     4.0000 </r>
       <r>   -22.8697    -0.0041     3.9989 </r>
       <r>   -22.6148    -0.4068     3.8952 </r>
       <r>   -22.3598     4.9569     5.1589 </r>
       <r>   -22.1049    11.5654     8.1072 </r>
       <r>   -21.8500    -0.3886     8.0081 </r>
       <r>   -21.5951    -0.3048     7.9304 </r>
       <r>   -21.3402     4.9389     9.1895 </r>
       <r>   -21.0852     3.4323    10.0644 </r>
       <r>   -20.8303    -0.2485    10.0011 </r>
       <r>   -20.5754    -0.0043    10.0000 </r>
       <r>   -20.3205    -0.0000    10.0000 </r>
       <r>   -20.0655    -0.0000    10.0000 </r>
       <r>   -19.8106     0.0000    10.0000 </r>
       <r>   -19.5557     0.0000    10.0000 </r>
       <r>   -19.3008     0.0000    10.0000 </r>
       <r>   -19.0458     0.0000    10.0000 </r>
       <r>   -18.7909     0.0000    10.0000 </r>
       <r>   -18.5360     0.0000    10.0000 </r>
       <r>   -18.2811     0.0000    10.0000 </r>
       <r>   -18.0262     0.0000    10.0000 </r>
       <r>   -17.7712     0.0000    10.0000 </r>
       <r>   -17.5163     0.0000    10.0000 </r>
       <r>   -17.2614     0.0000    10.0000 </r>
       <r>   -17.0065     0.0000    10.0000 </r>
       <r>   -16.7515    -0.0000    10.0000 </r>
       <r>   -16.4966    -0.0000    10.0000 </r>
       <r>   -16.2417    -0.0000    10.0000 </r>
       <r>   -15.9868    -0.0000    10.0000 </r>
       <r>   -15.7318    -0.0006     9.9998 </r>
       <r>   -15.4769    -0.1288     9.9670 </r>
       <r>   -15.2220     1.2644    10.2893 </r>
       <r>   -14.9671     6.6342    11.9805 </r>
       <r>   -14.7122     0.1251    12.0124 </r>
       <r>   -14.4572    -0.0487    12.0000 </r>
       <r>   -14.2023    -0.0001    12.0000 </r>
       <r>   -13.9474    -0.0000    12.0000 </r>
       <r>   -13.6925    -0.0000    12.0000 </r>
       <r>   -13.4375     0.0000    12.0000 </r>
       <r>   -13.1826     0.0000    12.0000 </r>
       <r>   -12.9277     0.0000    12.0000 </r>
       <r>   -12.6728     0.0000    12.0000 </r>
       <r>   -12.4179     0.0000    12.0000 </r>
       <r>   -12.1629    -0.0000    12.0000 </r>
       <r>   -11.9080    -0.0000    12.0000 </r>
       <r>   -11.6531    -0.0000    12.0000 </r>
       <r>   -11.3982    -0.0000    12.0000 </r>
       <r>   -11.1432    -0.0000    12.0000 </r>
       <r>   -10.8883    -0.0191    11.9951 </r>
       <r>   -10.6334    -0.2263    11.9374 </r>
       <r>   -10.3785     5.3410    13.2990 </r>
       <r>   -10.1235     7.7232    15.2678 </r>
       <r>    -9.8686     3.1236    16.0641 </r>
       <r>    -9.6137    -0.2474    16.0010 </r>
       <r>    -9.3588    -0.0040    16.0000 </r>
       <r>    -9.1039    -0.0000    16.0000 </r>
       <r>    -8.8489    -0.0000    16.0000 </r>
       <r>    -8.5940     0.0000    16.0000 </r>
       <r>    -8.3391    -0.0000    16.0000 </r>
       <r>    -8.0842    -0.0000    16.0000 </r>
       <r>    -7.8292    -0.0000    16.0000 </r>
       <r>    -7.5743    -0.0000    16.0000 </r>
       <r>    -7.3194    -0.0000    16.0000 </r>
       <r>    -7.0645    -0.0211    15.9946 </r>
       <r>    -6.8095    -0.5552    15.8531 </r>
       <r>    -6.5546     9.3199    18.2289 </r>
       <r>    -6.2997    13.1007    21.5686 </r>
       <r>    -6.0448     1.9040    22.0540 </r>
       <r>    -5.7899    -0.2097    22.0005 </r>
       <r>    -5.5349    -0.0020    22.0000 </r>
       <r>    -5.2800    -0.0000    22.0000 </r>
       <r>    -5.0251    -0.0000    22.0000 </r>
       <r>    -4.7702     0.0000    22.0000 </r>
       <r>    -4.5152     0.0000    22.0000 </r>
       <r>    -4.2603     0.0000    22.0000 </r>
       <r>    -4.0054     0.0000    22.0000 </r>
       <r>    -3.7505     0.0000    22.0000 </r>
       <r>    -3.4956     0.0000    22.0000 </r>
       <r>    -3.2406     0.0000    22.0000 </r>
       <r>    -2.9857     0.0000    22.0000 </r>
       <r>    -2.7308     0.0000    22.0000 </r>
       <r>    -2.4759    -0.0000    22.0000 </r>
       <r>    -2.2209    -0.0000    22.0000 </r>
       <r>    -1.9660    -0.0000    22.0000 </r>
       <r>    -1.7111    -0.0000    22.0000 </r>
       <r>    -1.4562    -0.0006    21.9998 </r>
       <r>    -1.2012    -0.1240    21.9682 </r>
       <r>    -0.9463     1.1929    22.2723 </r>
       <r>    -0.6914     6.6701    23.9727 </r>
       <r>    -0.4365     0.1584    24.0131 </r>
       <r>    -0.1816    -0.0512    24.0000 </r>
       <r>     0.0734    -0.0001    24.0000 </r>
       <r>     0.3283    -0.0000    24.0000 </r>
       <r>     0.5832    -0.0000    24.0000 </r>
       <r>     0.8381    -0.0000    24.0000 </r>
       <r>     1.0931    -0.0003    23.9999 </r>
       <r>     1.3480    -0.1308    23.9666 </r>
       <r>     1.6029     0.6986    24.1447 </r>
       <r>     1.8578    13.5978    27.6110 </r>
       <r>     2.1128     1.7301    28.0521 </r>
       <r>     2.3677    -0.2036    28.0002 </r>
       <r>     2.6226    -0.0008    28.0000 </r>
       <r>     2.8775    -0.0000    28.0000 </r>
       <r>     3.1324    -0.0000    28.0000 </r>
       <r>     3.3874    -0.0000    28.0000 </r>
       <r>     3.6423    -0.0000    28.0000 </r>
       <r>     3.8972    -0.0193    27.9951 </r>
       <r>     4.1521    -0.6127    27.8389 </r>
       <r>     4.4071     9.5287    30.2680 </r>
       <r>     4.6620    16.1197    34.3772 </r>
       <r>     4.9169     6.5391    36.0442 </r>
       <r>     5.1718    -0.3825    35.9467 </r>
       <r>     5.4268     2.1472    36.4941 </r>
       <r>     5.6817    14.1624    40.1044 </r>
       <r>     5.9366    13.9794    43.6681 </r>
       <r>     6.1915     1.4961    44.0495 </r>
       <r>     6.4464    -0.3872    43.9508 </r>
       <r>     6.7014     2.0728    44.4792 </r>
       <r>     6.9563     8.0440    46.5298 </r>
       <r>     7.2112     5.9445    48.0452 </r>
       <r>     7.4661    -0.1489    48.0072 </r>
       <r>     7.7211    -0.0282    48.0000 </r>
       <r>     7.9760    -0.0000    48.0000 </r>
       <r>     8.2309    -0.0105    47.9973 </r>
       <r>     8.4858    -0.3156    47.9169 </r>
       <r>     8.7407     4.8498    49.1532 </r>
       <r>     8.9957    10.2979    51.7784 </r>
       <r>     9.2506     1.0034    52.0342 </r>
       <r>     9.5055    -0.1335    52.0002 </r>
       <r>     9.7604    -0.0026    51.9995 </r>
       <r>    10.0154    -0.2002    51.9485 </r>
       <r>    10.2703     2.4203    52.5655 </r>
       <r>    10.5252     5.7900    54.0415 </r>
       <r>    10.7801    -0.1599    54.0007 </r>
       <r>    11.0351     6.4588    55.6472 </r>
       <r>    11.2900     1.5310    56.0375 </r>
       <r>    11.5449    -0.1469    56.0000 </r>
       <r>    11.7998    -0.1476    55.9624 </r>
       <r>    12.0547     0.8466    56.1782 </r>
       <r>    12.3097    14.2035    59.7990 </r>
       <r>    12.5646     9.2355    62.1534 </r>
       <r>    12.8195    -0.5827    62.0048 </r>
       <r>    13.0744    -0.0189    62.0000 </r>
       <r>    13.3294    -0.0000    62.0000 </r>
       <r>    13.5843    -0.0000    62.0000 </r>
       <r>    13.8392     0.0000    62.0000 </r>
       <r>    14.0941     0.0000    62.0000 </r>
       <r>    14.3491     0.0000    62.0000 </r>
       <r>    14.6040     0.0000    62.0000 </r>
       <r>    14.8589     0.0000    62.0000 </r>
       <r>    15.1138     0.0000    62.0000 </r>
       <r>    15.3687     0.0000    62.0000 </r>
       <r>    15.6237     0.0000    62.0000 </r>
       <r>    15.8786     0.0000    62.0000 </r>
       <r>    16.1335     0.0000    62.0000 </r>
       <r>    16.3884     0.0000    62.0000 </r>
       <r>    16.6434     0.0000    62.0000 </r>
       <r>    16.8983     0.0000    62.0000 </r>
       <r>    17.1532    -0.0000    62.0000 </r>
       <r>    17.4081    -0.0000    62.0000 </r>
       <r>    17.6630    -0.0000    62.0000 </r>
       <r>    17.9180    -0.0000    62.0000 </r>
       <r>    18.1729    -0.0003    61.9999 </r>
       <r>    18.4278    -0.0897    61.9771 </r>
       <r>    18.6827     0.6903    62.1530 </r>
       <r>    18.9377     6.8340    63.8952 </r>
       <r>    19.1926     0.1723    63.9391 </r>
       <r>    19.4475     2.6364    64.6112 </r>
       <r>    19.7024    20.3279    69.7932 </r>
       <r>    19.9574     1.0045    70.0493 </r>
       <r>    20.2123    -0.1928    70.0001 </r>
       <r>    20.4672    -0.0005    70.0000 </r>
       <r>    20.7221    -0.0005    69.9999 </r>
       <r>    20.9770    -0.1095    69.9720 </r>
       <r>    21.2320     0.9782    70.2213 </r>
       <r>    21.4869     6.7621    71.9451 </r>
       <r>    21.7418     0.2754    72.0153 </r>
       <r>    21.9967    -0.0600    72.0000 </r>
       <r>    22.2517    -0.0001    72.0000 </r>
       <r>    22.5066    -0.0000    72.0000 </r>
       <r>    22.7615    -0.0000    72.0000 </r>
       <r>    23.0164    -0.0388    71.9901 </r>
       <r>    23.2714    -0.5586    71.8477 </r>
       <r>    23.5263    12.4901    75.0317 </r>
       <r>    23.7812    12.0164    78.0950 </r>
       <r>    24.0361    -0.3206    78.0132 </r>
       <r>    24.2910    -0.1846    77.9662 </r>
       <r>    24.5460     1.3142    78.3012 </r>
       <r>    24.8009     6.6077    79.9857 </r>
       <r>    25.0558     0.1033    80.0120 </r>
       <r>    25.3107    -0.0470    80.0000 </r>
       <r>    25.5657    -0.0001    80.0000 </r>
       <r>    25.8206    -0.0000    80.0000 </r>
       <r>    26.0755    -0.0000    80.0000 </r>
       <r>    26.3304     0.0000    80.0000 </r>
       <r>    26.5853     0.0000    80.0000 </r>
       <r>    26.8403     0.0000    80.0000 </r>
       <r>    27.0952     0.0000    80.0000 </r>
       <r>    27.3501     0.0000    80.0000 </r>
       <r>    27.6050     0.0000    80.0000 </r>
       <r>    27.8600     0.0000    80.0000 </r>
       <r>    28.1149     0.0000    80.0000 </r>
      </set>
     </set>
    </array>
   </total>
  </dos>
 </calculation>
 <structure name="finalpos" >
  <crystal>
   <varray name="basis" >
    <v>       4.19200000       0.00000000       0.00000000 </v>
    <v>       0.00000000       4.19200000       0.00000000 </v>
    <v>       0.00000000       0.00000000       4.19200000 </v>
   </varray>
   <i name="volume">     73.66544589 </i>
   <varray name="rec_basis" >
    <v>       0.23854962       0.00000000       0.00000000 </v>
    <v>       0.00000000       0.23854962       0.00000000 </v>
    <v>       0.00000000       0.00000000       0.23854962 </v>
   </varray>
  </crystal>
  <varray name="positions" >
   <v>       0.00000000       0.00000000       0.00000000 </v>
   <v>       0.50000000       0.50000000       0.50000000 </v>
   <v>       0.50000000       0.00000000       0.50000000 </v>
   <v>       0.00000000       0.50000000       0.50000000 </v>
   <v>       0.50000000       0.50000000       0.00000000 </v>
   <v>       0.50000000       0.50000000       0.22900763 </v>
  </varray>
 </structure>
</modeling>
