unknown system                          
           1
     4.192000    0.000000    0.000000
     0.000000    4.192000    0.000000
     0.000000    0.000000    4.192000
   Ba   Zr   O    H 
     1     1     3     1
Direct configuration=     1
   0.00000000  0.00000000  0.00000000
   0.50000000  0.50000000  0.50000000
   0.50000000  0.00000000  0.50000000
   0.00000000  0.50000000  0.50000000
   0.50000000  0.50000000  0.00000000
   0.50000000  0.50000000  0.22900763
