3
Lattice="15.0 0.0 0.0 0.0 15.0 0.0 0.0 0.0 15.0" Properties=species:S:1:pos:R:3:initial_magmoms:R:1:forces:R:3 energy=-13.17492389678955 free_energy=-13.17492389678955 stress="-1.141877076566486e-06 -2.8103418991920893e-06 -5.603459572489972e-06 -2.8103418991920893e-06 -5.209738418700856e-07 -2.6094802138225023e-06 -5.603459572489972e-06 -2.6094802138225023e-06 -7.949016943844415e-06" pbc="T T T"
O        6.45182540       7.24481059       6.92379927       0.00000000      -0.01618320      -0.00835268      -0.02438453
O        7.15382064       7.63676498       8.03335700       0.00000000       0.02445462       0.00436234       0.02240795
H        8.06135396       7.25692442       7.91784373       0.00000000      -0.00827143       0.00399035       0.00197661
