   2   2   1   0
  0.4000000E+04  0.2000000E-08  0.2000000E-08  0.2000000E-08  0.1500000E-15
  1.000000000000000E-004
  CAR 
 unknown system                          
      2.73442669    -34.99380958  301     -6.06686343      1.00000000
    -34.994  0.0000E+00  0.0000E+00  0.0000E+00  0.0000E+00
    -34.868  0.0000E+00  0.0000E+00  0.0000E+00  0.0000E+00
    -34.742  0.0000E+00  0.0000E+00  0.0000E+00  0.0000E+00
    -34.617  0.0000E+00  0.0000E+00  0.0000E+00  0.0000E+00
    -34.491  0.0000E+00  0.0000E+00  0.0000E+00  0.0000E+00
    -34.365  0.0000E+00  0.0000E+00  0.0000E+00  0.0000E+00
    -34.239  0.0000E+00  0.0000E+00  0.0000E+00  0.0000E+00
    -34.113  0.1942E-14  0.0000E+00  0.2442E-15  0.0000E+00
    -33.988  0.1664E-11  0.0000E+00  0.2095E-12  0.0000E+00
    -33.862  0.6596E-09  0.0000E+00  0.8316E-10  0.0000E+00
    -33.736  0.1206E-06  0.0000E+00  0.1525E-07  0.0000E+00
    -33.610  0.1021E-04  0.0000E+00  0.1299E-05  0.0000E+00
    -33.485  0.4020E-03  0.0000E+00  0.5186E-04  0.0000E+00
    -33.359  0.7405E-02  0.0000E+00  0.9831E-03  0.0000E+00
    -33.233  0.6419E-01  0.0000E+00  0.9056E-02  0.0000E+00
    -33.107  0.2634E+00  0.0000E+00  0.4219E-01  0.0000E+00
    -32.982  0.5143E+00  0.0000E+00  0.1069E+00  0.0000E+00
    -32.856  0.4787E+00  0.3046E-13  0.1671E+00  0.3830E-14
    -32.730  0.2124E+00  0.1932E-10  0.1938E+00  0.2434E-11
    -32.604  0.4481E-01  0.5643E-08  0.1994E+00  0.7121E-09
    -32.479  0.4469E-02  0.7612E-06  0.2000E+00  0.9644E-07
    -32.353  0.2095E-03  0.4761E-04  0.2000E+00  0.6084E-05
    -32.227  0.4590E-05  0.1388E-02  0.2000E+00  0.1807E-03
    -32.101  0.4673E-07  0.1898E-01  0.2000E+00  0.2568E-02
    -31.976  0.2201E-09  0.1225E+00  0.2000E+00  0.1797E-01
    -31.850  0.4778E-12  0.3747E+00  0.2000E+00  0.6509E-01
    -31.724  0.3531E-15  0.5461E+00  0.2000E+00  0.1338E+00
    -31.598  0.0000E+00  0.3796E+00  0.2000E+00  0.1815E+00
    -31.473  0.0000E+00  0.1257E+00  0.2000E+00  0.1973E+00
    -31.347  0.0000E+00  0.1975E-01  0.2000E+00  0.1998E+00
    -31.221  0.0000E+00  0.1463E-02  0.2000E+00  0.2000E+00
    -31.095  0.0000E+00  0.5086E-04  0.2000E+00  0.2000E+00
    -30.969  0.0000E+00  0.8241E-06  0.2000E+00  0.2000E+00
    -30.844  0.0000E+00  0.6193E-08  0.2000E+00  0.2000E+00
    -30.718  0.0000E+00  0.2150E-10  0.2000E+00  0.2000E+00
    -30.592  0.0000E+00  0.3425E-13  0.2000E+00  0.2000E+00
    -30.466  0.0000E+00  0.0000E+00  0.2000E+00  0.2000E+00
    -30.341  0.0000E+00  0.0000E+00  0.2000E+00  0.2000E+00
    -30.215  0.0000E+00  0.0000E+00  0.2000E+00  0.2000E+00
    -30.089  0.0000E+00  0.0000E+00  0.2000E+00  0.2000E+00
    -29.963  0.0000E+00  0.0000E+00  0.2000E+00  0.2000E+00
    -29.838  0.0000E+00  0.0000E+00  0.2000E+00  0.2000E+00
    -29.712  0.0000E+00  0.0000E+00  0.2000E+00  0.2000E+00
    -29.586  0.0000E+00  0.0000E+00  0.2000E+00  0.2000E+00
    -29.460  0.0000E+00  0.0000E+00  0.2000E+00  0.2000E+00
    -29.335  0.0000E+00  0.0000E+00  0.2000E+00  0.2000E+00
    -29.209  0.0000E+00  0.0000E+00  0.2000E+00  0.2000E+00
    -29.083  0.0000E+00  0.0000E+00  0.2000E+00  0.2000E+00
    -28.957  0.0000E+00  0.0000E+00  0.2000E+00  0.2000E+00
    -28.832  0.0000E+00  0.0000E+00  0.2000E+00  0.2000E+00
    -28.706  0.0000E+00  0.0000E+00  0.2000E+00  0.2000E+00
    -28.580  0.0000E+00  0.0000E+00  0.2000E+00  0.2000E+00
    -28.454  0.0000E+00  0.0000E+00  0.2000E+00  0.2000E+00
    -28.328  0.0000E+00  0.0000E+00  0.2000E+00  0.2000E+00
    -28.203  0.0000E+00  0.0000E+00  0.2000E+00  0.2000E+00
    -28.077  0.0000E+00  0.0000E+00  0.2000E+00  0.2000E+00
    -27.951  0.0000E+00  0.0000E+00  0.2000E+00  0.2000E+00
    -27.825  0.0000E+00  0.0000E+00  0.2000E+00  0.2000E+00
    -27.700  0.0000E+00  0.0000E+00  0.2000E+00  0.2000E+00
    -27.574  0.0000E+00  0.0000E+00  0.2000E+00  0.2000E+00
    -27.448  0.0000E+00  0.0000E+00  0.2000E+00  0.2000E+00
    -27.322  0.0000E+00  0.0000E+00  0.2000E+00  0.2000E+00
    -27.197  0.0000E+00  0.0000E+00  0.2000E+00  0.2000E+00
    -27.071  0.0000E+00  0.0000E+00  0.2000E+00  0.2000E+00
    -26.945  0.0000E+00  0.0000E+00  0.2000E+00  0.2000E+00
    -26.819  0.0000E+00  0.0000E+00  0.2000E+00  0.2000E+00
    -26.694  0.0000E+00  0.0000E+00  0.2000E+00  0.2000E+00
    -26.568  0.0000E+00  0.0000E+00  0.2000E+00  0.2000E+00
    -26.442  0.0000E+00  0.0000E+00  0.2000E+00  0.2000E+00
    -26.316  0.0000E+00  0.0000E+00  0.2000E+00  0.2000E+00
    -26.191  0.0000E+00  0.0000E+00  0.2000E+00  0.2000E+00
    -26.065  0.0000E+00  0.0000E+00  0.2000E+00  0.2000E+00
    -25.939  0.0000E+00  0.0000E+00  0.2000E+00  0.2000E+00
    -25.813  0.0000E+00  0.0000E+00  0.2000E+00  0.2000E+00
    -25.688  0.0000E+00  0.0000E+00  0.2000E+00  0.2000E+00
    -25.562  0.0000E+00  0.0000E+00  0.2000E+00  0.2000E+00
    -25.436  0.0000E+00  0.0000E+00  0.2000E+00  0.2000E+00
    -25.310  0.0000E+00  0.0000E+00  0.2000E+00  0.2000E+00
    -25.184  0.0000E+00  0.0000E+00  0.2000E+00  0.2000E+00
    -25.059  0.0000E+00  0.0000E+00  0.2000E+00  0.2000E+00
    -24.933  0.0000E+00  0.0000E+00  0.2000E+00  0.2000E+00
    -24.807  0.0000E+00  0.0000E+00  0.2000E+00  0.2000E+00
    -24.681  0.0000E+00  0.0000E+00  0.2000E+00  0.2000E+00
    -24.556  0.0000E+00  0.0000E+00  0.2000E+00  0.2000E+00
    -24.430  0.0000E+00  0.0000E+00  0.2000E+00  0.2000E+00
    -24.304  0.0000E+00  0.0000E+00  0.2000E+00  0.2000E+00
    -24.178  0.0000E+00  0.0000E+00  0.2000E+00  0.2000E+00
    -24.053  0.0000E+00  0.0000E+00  0.2000E+00  0.2000E+00
    -23.927  0.0000E+00  0.0000E+00  0.2000E+00  0.2000E+00
    -23.801  0.0000E+00  0.0000E+00  0.2000E+00  0.2000E+00
    -23.675  0.0000E+00  0.0000E+00  0.2000E+00  0.2000E+00
    -23.550  0.0000E+00  0.0000E+00  0.2000E+00  0.2000E+00
    -23.424  0.0000E+00  0.0000E+00  0.2000E+00  0.2000E+00
    -23.298  0.0000E+00  0.0000E+00  0.2000E+00  0.2000E+00
    -23.172  0.0000E+00  0.0000E+00  0.2000E+00  0.2000E+00
    -23.047  0.0000E+00  0.0000E+00  0.2000E+00  0.2000E+00
    -22.921  0.0000E+00  0.0000E+00  0.2000E+00  0.2000E+00
    -22.795  0.0000E+00  0.0000E+00  0.2000E+00  0.2000E+00
    -22.669  0.0000E+00  0.0000E+00  0.2000E+00  0.2000E+00
    -22.543  0.0000E+00  0.0000E+00  0.2000E+00  0.2000E+00
    -22.418  0.0000E+00  0.0000E+00  0.2000E+00  0.2000E+00
    -22.292  0.0000E+00  0.0000E+00  0.2000E+00  0.2000E+00
    -22.166  0.0000E+00  0.0000E+00  0.2000E+00  0.2000E+00
    -22.040  0.0000E+00  0.0000E+00  0.2000E+00  0.2000E+00
    -21.915  0.2472E-14  0.0000E+00  0.2000E+00  0.2000E+00
    -21.789  0.2060E-11  0.0000E+00  0.2000E+00  0.2000E+00
    -21.663  0.7957E-09  0.0000E+00  0.2000E+00  0.2000E+00
    -21.537  0.1418E-06  0.0000E+00  0.2000E+00  0.2000E+00
    -21.412  0.1169E-04  0.0000E+00  0.2000E+00  0.2000E+00
    -21.286  0.4488E-03  0.0000E+00  0.2001E+00  0.2000E+00
    -21.160  0.8060E-02  0.0000E+00  0.2011E+00  0.2000E+00
    -21.034  0.6813E-01  0.0000E+00  0.2096E+00  0.2000E+00
    -20.909  0.2727E+00  0.0000E+00  0.2439E+00  0.2000E+00
    -20.783  0.5192E+00  0.0000E+00  0.3092E+00  0.2000E+00
    -20.657  0.4714E+00  0.0000E+00  0.3685E+00  0.2000E+00
    -20.531  0.2041E+00  0.0000E+00  0.3942E+00  0.2000E+00
    -20.406  0.4198E-01  0.0000E+00  0.3995E+00  0.2000E+00
    -20.280  0.4082E-02  0.0000E+00  0.4000E+00  0.2000E+00
    -20.154  0.1866E-03  0.2648E-15  0.4000E+00  0.2000E+00
    -20.028  0.3984E-05  0.3173E-12  0.4000E+00  0.2000E+00
    -19.903  0.3953E-07  0.1534E-09  0.4000E+00  0.2000E+00
    -19.777  0.1814E-09  0.3419E-07  0.4000E+00  0.2000E+00
    -19.651  0.3835E-12  0.3524E-05  0.4000E+00  0.2000E+00
    -19.525  0.3531E-15  0.1687E-03  0.4000E+00  0.2000E+00
    -19.399  0.0000E+00  0.3774E-02  0.4000E+00  0.2005E+00
    -19.274  0.0000E+00  0.3965E-01  0.4000E+00  0.2055E+00
    -19.148  0.0000E+00  0.1970E+00  0.4000E+00  0.2303E+00
    -19.022  0.0000E+00  0.4650E+00  0.4000E+00  0.2887E+00
    -18.896  0.0000E+00  0.5232E+00  0.4000E+00  0.3545E+00
    -18.771  0.0000E+00  0.2807E+00  0.4000E+00  0.3898E+00
    -18.645  0.0000E+00  0.7167E-01  0.4000E+00  0.3988E+00
    -18.519  0.0000E+00  0.8664E-02  0.4000E+00  0.3999E+00
    -18.393  0.0000E+00  0.4932E-03  0.4000E+00  0.4000E+00
    -18.268  0.0000E+00  0.1314E-04  0.4000E+00  0.4000E+00
    -18.142  0.0000E+00  0.1628E-06  0.4000E+00  0.4000E+00
    -18.016  0.0000E+00  0.9345E-09  0.4000E+00  0.4000E+00
    -17.890  0.0000E+00  0.2474E-11  0.4000E+00  0.4000E+00
    -17.765  0.0000E+00  0.3002E-14  0.4000E+00  0.4000E+00
    -17.639  0.0000E+00  0.0000E+00  0.4000E+00  0.4000E+00
    -17.513  0.0000E+00  0.0000E+00  0.4000E+00  0.4000E+00
    -17.387  0.0000E+00  0.0000E+00  0.4000E+00  0.4000E+00
    -17.262  0.0000E+00  0.0000E+00  0.4000E+00  0.4000E+00
    -17.136  0.0000E+00  0.0000E+00  0.4000E+00  0.4000E+00
    -17.010  0.0000E+00  0.0000E+00  0.4000E+00  0.4000E+00
    -16.884  0.0000E+00  0.0000E+00  0.4000E+00  0.4000E+00
    -16.758  0.0000E+00  0.0000E+00  0.4000E+00  0.4000E+00
    -16.633  0.0000E+00  0.0000E+00  0.4000E+00  0.4000E+00
    -16.507  0.0000E+00  0.0000E+00  0.4000E+00  0.4000E+00
    -16.381  0.0000E+00  0.0000E+00  0.4000E+00  0.4000E+00
    -16.255  0.0000E+00  0.0000E+00  0.4000E+00  0.4000E+00
    -16.130  0.0000E+00  0.0000E+00  0.4000E+00  0.4000E+00
    -16.004  0.0000E+00  0.0000E+00  0.4000E+00  0.4000E+00
    -15.878  0.0000E+00  0.0000E+00  0.4000E+00  0.4000E+00
    -15.752  0.0000E+00  0.0000E+00  0.4000E+00  0.4000E+00
    -15.627  0.0000E+00  0.0000E+00  0.4000E+00  0.4000E+00
    -15.501  0.0000E+00  0.0000E+00  0.4000E+00  0.4000E+00
    -15.375  0.0000E+00  0.0000E+00  0.4000E+00  0.4000E+00
    -15.249  0.0000E+00  0.0000E+00  0.4000E+00  0.4000E+00
    -15.124  0.0000E+00  0.0000E+00  0.4000E+00  0.4000E+00
    -14.998  0.0000E+00  0.0000E+00  0.4000E+00  0.4000E+00
    -14.872  0.0000E+00  0.0000E+00  0.4000E+00  0.4000E+00
    -14.746  0.0000E+00  0.0000E+00  0.4000E+00  0.4000E+00
    -14.621  0.2940E-13  0.0000E+00  0.4000E+00  0.4000E+00
    -14.495  0.1894E-10  0.0000E+00  0.4000E+00  0.4000E+00
    -14.369  0.5646E-08  0.0000E+00  0.4000E+00  0.4000E+00
    -14.243  0.7858E-06  0.0000E+00  0.4000E+00  0.4000E+00
    -14.118  0.5161E-04  0.0000E+00  0.4000E+00  0.4000E+00
    -13.992  0.1623E-02  0.0000E+00  0.4002E+00  0.4000E+00
    -13.866  0.2491E-01  0.0000E+00  0.4033E+00  0.4000E+00
    -13.740  0.1900E+00  0.7504E-14  0.4272E+00  0.4000E+00
    -13.614  0.7333E+00  0.5569E-11  0.5195E+00  0.4000E+00
    -13.489  0.1443E+01  0.1903E-08  0.7009E+00  0.4000E+00
    -13.363  0.1445E+01  0.3000E-06  0.8826E+00  0.4000E+00
    -13.237  0.7282E+00  0.2192E-04  0.9742E+00  0.4000E+00
    -13.111  0.1818E+00  0.7457E-03  0.9971E+00  0.4001E+00
    -12.986  0.2212E-01  0.1188E-01  0.9998E+00  0.4016E+00
    -12.860  0.1291E-02  0.8918E-01  0.1000E+01  0.4128E+00
    -12.734  0.3567E-04  0.3172E+00  0.1000E+01  0.4527E+00
    -12.608  0.4621E-06  0.5372E+00  0.1000E+01  0.5203E+00
    -12.483  0.2785E-08  0.4338E+00  0.1000E+01  0.5748E+00
    -12.357  0.7763E-11  0.1670E+00  0.1000E+01  0.5958E+00
    -12.231  0.9887E-14  0.3053E-01  0.1000E+01  0.5997E+00
    -12.105  0.0000E+00  0.3195E-02  0.1000E+01  0.6001E+00
    -11.980  0.0000E+00  0.1132E-01  0.1000E+01  0.6015E+00
    -11.854  0.0000E+00  0.1054E+00  0.1000E+01  0.6147E+00
    -11.728  0.0000E+00  0.4688E+00  0.1000E+01  0.6737E+00
    -11.602  0.0000E+00  0.9916E+00  0.1000E+01  0.7984E+00
    -11.477  0.0000E+00  0.9999E+00  0.1000E+01  0.9241E+00
    -11.351  0.0000E+00  0.4807E+00  0.1000E+01  0.9846E+00
    -11.225  0.0000E+00  0.1099E+00  0.1000E+01  0.9984E+00
    -11.099  0.0000E+00  0.1189E-01  0.1000E+01  0.9999E+00
    -10.973  0.0000E+00  0.6050E-03  0.1000E+01  0.1000E+01
    -10.848  0.0000E+00  0.1440E-04  0.1000E+01  0.1000E+01
    -10.722  0.0000E+00  0.1592E-06  0.1000E+01  0.1000E+01
    -10.596  0.0000E+00  0.8153E-09  0.1000E+01  0.1000E+01
    -10.470  0.0000E+00  0.1924E-11  0.1000E+01  0.1000E+01
    -10.345  0.0000E+00  0.2119E-14  0.1000E+01  0.1000E+01
    -10.219  0.0000E+00  0.0000E+00  0.1000E+01  0.1000E+01
    -10.093  0.0000E+00  0.0000E+00  0.1000E+01  0.1000E+01
     -9.967  0.0000E+00  0.0000E+00  0.1000E+01  0.1000E+01
     -9.842  0.0000E+00  0.0000E+00  0.1000E+01  0.1000E+01
     -9.716  0.0000E+00  0.0000E+00  0.1000E+01  0.1000E+01
     -9.590  0.0000E+00  0.0000E+00  0.1000E+01  0.1000E+01
     -9.464  0.0000E+00  0.0000E+00  0.1000E+01  0.1000E+01
     -9.339  0.0000E+00  0.0000E+00  0.1000E+01  0.1000E+01
     -9.213  0.0000E+00  0.0000E+00  0.1000E+01  0.1000E+01
     -9.087  0.0000E+00  0.0000E+00  0.1000E+01  0.1000E+01
     -8.961  0.0000E+00  0.0000E+00  0.1000E+01  0.1000E+01
     -8.836  0.0000E+00  0.0000E+00  0.1000E+01  0.1000E+01
     -8.710  0.0000E+00  0.0000E+00  0.1000E+01  0.1000E+01
     -8.584  0.0000E+00  0.0000E+00  0.1000E+01  0.1000E+01
     -8.458  0.0000E+00  0.0000E+00  0.1000E+01  0.1000E+01
     -8.333  0.0000E+00  0.0000E+00  0.1000E+01  0.1000E+01
     -8.207  0.0000E+00  0.0000E+00  0.1000E+01  0.1000E+01
     -8.081  0.2083E-13  0.0000E+00  0.1000E+01  0.1000E+01
     -7.955  0.1490E-10  0.0000E+00  0.1000E+01  0.1000E+01
     -7.829  0.4908E-08  0.0000E+00  0.1000E+01  0.1000E+01
     -7.704  0.7464E-06  0.0000E+00  0.1000E+01  0.1000E+01
     -7.578  0.5260E-04  0.0000E+00  0.1000E+01  0.1000E+01
     -7.452  0.1727E-02  0.0000E+00  0.1000E+01  0.1000E+01
     -7.326  0.2655E-01  0.0000E+00  0.1004E+01  0.1000E+01
     -7.201  0.1925E+00  0.0000E+00  0.1028E+01  0.1000E+01
     -7.075  0.6612E+00  0.0000E+00  0.1111E+01  0.1000E+01
     -6.949  0.1081E+01  0.0000E+00  0.1247E+01  0.1000E+01
     -6.823  0.8436E+00  0.0000E+00  0.1353E+01  0.1000E+01
     -6.698  0.3135E+00  0.0000E+00  0.1392E+01  0.1000E+01
     -6.572  0.5533E-01  0.0000E+00  0.1399E+01  0.1000E+01
     -6.446  0.4612E-02  0.0000E+00  0.1400E+01  0.1000E+01
     -6.320  0.1804E-03  0.0000E+00  0.1400E+01  0.1000E+01
     -6.195  0.3293E-05  0.0000E+00  0.1400E+01  0.1000E+01
     -6.069  0.2790E-07  0.0000E+00  0.1400E+01  0.1000E+01
     -5.943  0.1092E-09  0.0000E+00  0.1400E+01  0.1000E+01
     -5.817  0.1970E-12  0.3355E-14  0.1400E+01  0.1000E+01
     -5.692  0.0000E+00  0.2872E-11  0.1400E+01  0.1000E+01
     -5.566  0.0000E+00  0.1159E-08  0.1400E+01  0.1000E+01
     -5.440  0.0000E+00  0.2158E-06  0.1400E+01  0.1000E+01
     -5.314  0.0000E+00  0.1859E-04  0.1400E+01  0.1000E+01
     -5.189  0.0000E+00  0.7451E-03  0.1400E+01  0.1000E+01
     -5.063  0.0000E+00  0.1397E-01  0.1400E+01  0.1002E+01
     -4.937  0.0000E+00  0.1232E+00  0.1400E+01  0.1017E+01
     -4.811  0.0000E+00  0.5143E+00  0.1400E+01  0.1082E+01
     -4.685  0.0000E+00  0.1021E+01  0.1400E+01  0.1210E+01
     -4.560  0.0000E+00  0.9670E+00  0.1400E+01  0.1332E+01
     -4.434  0.0000E+00  0.4365E+00  0.1400E+01  0.1387E+01
     -4.308  0.0000E+00  0.9367E-01  0.1400E+01  0.1399E+01
     -4.182  0.0000E+00  0.9507E-02  0.1400E+01  0.1400E+01
     -4.057  0.0000E+00  0.4536E-03  0.1400E+01  0.1400E+01
     -3.931  0.0000E+00  0.1011E-04  0.1400E+01  0.1400E+01
     -3.805  0.0000E+00  0.1048E-06  0.1400E+01  0.1400E+01
     -3.679  0.0000E+00  0.5025E-09  0.1400E+01  0.1400E+01
     -3.554  0.0000E+00  0.1110E-11  0.1400E+01  0.1400E+01
     -3.428  0.0000E+00  0.1059E-14  0.1400E+01  0.1400E+01
     -3.302  0.0000E+00  0.0000E+00  0.1400E+01  0.1400E+01
     -3.176  0.0000E+00  0.0000E+00  0.1400E+01  0.1400E+01
     -3.051  0.0000E+00  0.0000E+00  0.1400E+01  0.1400E+01
     -2.925  0.0000E+00  0.0000E+00  0.1400E+01  0.1400E+01
     -2.799  0.0000E+00  0.0000E+00  0.1400E+01  0.1400E+01
     -2.673  0.0000E+00  0.0000E+00  0.1400E+01  0.1400E+01
     -2.548  0.0000E+00  0.0000E+00  0.1400E+01  0.1400E+01
     -2.422  0.0000E+00  0.0000E+00  0.1400E+01  0.1400E+01
     -2.296  0.0000E+00  0.0000E+00  0.1400E+01  0.1400E+01
     -2.170  0.0000E+00  0.0000E+00  0.1400E+01  0.1400E+01
     -2.044  0.0000E+00  0.0000E+00  0.1400E+01  0.1400E+01
     -1.919  0.0000E+00  0.0000E+00  0.1400E+01  0.1400E+01
     -1.793  0.0000E+00  0.0000E+00  0.1400E+01  0.1400E+01
     -1.667  0.0000E+00  0.0000E+00  0.1400E+01  0.1400E+01
     -1.541  0.0000E+00  0.0000E+00  0.1400E+01  0.1400E+01
     -1.416  0.0000E+00  0.0000E+00  0.1400E+01  0.1400E+01
     -1.290  0.1916E-13  0.1766E-15  0.1400E+01  0.1400E+01
     -1.164  0.1282E-10  0.1616E-12  0.1400E+01  0.1400E+01
     -1.038  0.3944E-08  0.8464E-10  0.1400E+01  0.1400E+01
     -0.913  0.5603E-06  0.2041E-07  0.1400E+01  0.1400E+01
     -0.787  0.3691E-04  0.2275E-05  0.1400E+01  0.1400E+01
     -0.661  0.1133E-02  0.1178E-03  0.1400E+01  0.1400E+01
     -0.535  0.1630E-01  0.2847E-02  0.1402E+01  0.1400E+01
     -0.410  0.1108E+00  0.3235E-01  0.1416E+01  0.1404E+01
     -0.284  0.3615E+00  0.1750E+00  0.1462E+01  0.1426E+01
     -0.158  0.6052E+00  0.4668E+00  0.1538E+01  0.1485E+01
     -0.032  0.7268E+00  0.7241E+00  0.1629E+01  0.1576E+01
      0.093  0.1196E+01  0.1091E+01  0.1780E+01  0.1713E+01
      0.219  0.2258E+01  0.2066E+01  0.2064E+01  0.1973E+01
      0.345  0.3209E+01  0.3145E+01  0.2467E+01  0.2369E+01
      0.471  0.3388E+01  0.3364E+01  0.2893E+01  0.2792E+01
      0.596  0.3346E+01  0.3335E+01  0.3314E+01  0.3211E+01
      0.722  0.2979E+01  0.3225E+01  0.3689E+01  0.3617E+01
      0.848  0.1769E+01  0.2119E+01  0.3911E+01  0.3883E+01
      0.974  0.5927E+00  0.7700E+00  0.3986E+01  0.3980E+01
      1.100  0.1050E+00  0.1450E+00  0.3999E+01  0.3998E+01
      1.225  0.9480E-02  0.1374E-01  0.4000E+01  0.4000E+01
      1.351  0.4249E-03  0.6415E-03  0.4000E+01  0.4000E+01
      1.477  0.9246E-05  0.1452E-04  0.4000E+01  0.4000E+01
      1.603  0.9608E-07  0.1571E-06  0.4000E+01  0.4000E+01
      1.728  0.4707E-09  0.8046E-09  0.4000E+01  0.4000E+01
      1.854  0.1077E-11  0.1931E-11  0.4000E+01  0.4000E+01
      1.980  0.1059E-14  0.2119E-14  0.4000E+01  0.4000E+01
      2.106  0.0000E+00  0.0000E+00  0.4000E+01  0.4000E+01
      2.231  0.0000E+00  0.0000E+00  0.4000E+01  0.4000E+01
      2.357  0.0000E+00  0.0000E+00  0.4000E+01  0.4000E+01
      2.483  0.0000E+00  0.0000E+00  0.4000E+01  0.4000E+01
      2.609  0.0000E+00  0.0000E+00  0.4000E+01  0.4000E+01
      2.734  0.0000E+00  0.0000E+00  0.4000E+01  0.4000E+01
      2.73442669    -34.99380958  301     -6.06686343      1.00000000
    -34.994  0.0000E+00  0.0000E+00  0.0000E+00  0.0000E+00  0.0000E+00  0.0000E+00
    -34.868  0.0000E+00  0.0000E+00  0.0000E+00  0.0000E+00  0.0000E+00  0.0000E+00
    -34.742  0.0000E+00  0.0000E+00  0.0000E+00  0.0000E+00  0.0000E+00  0.0000E+00
    -34.617  0.0000E+00  0.0000E+00  0.0000E+00  0.0000E+00  0.0000E+00  0.0000E+00
    -34.491  0.0000E+00  0.0000E+00  0.0000E+00  0.0000E+00  0.0000E+00  0.0000E+00
    -34.365  0.0000E+00  0.0000E+00  0.0000E+00  0.0000E+00  0.0000E+00  0.0000E+00
    -34.239  0.0000E+00  0.0000E+00  0.0000E+00  0.0000E+00  0.0000E+00  0.0000E+00
    -34.113  0.3694E-14  0.0000E+00  0.9835E-15  0.0000E+00  0.0000E+00  0.0000E+00
    -33.988  0.3164E-11  0.0000E+00  0.8425E-12  0.0000E+00  0.0000E+00  0.0000E+00
    -33.862  0.1255E-08  0.0000E+00  0.3340E-09  0.0000E+00  0.0000E+00  0.0000E+00
    -33.736  0.2294E-06  0.0000E+00  0.6108E-07  0.0000E+00  0.0000E+00  0.0000E+00
    -33.610  0.1942E-04  0.0000E+00  0.5170E-05  0.0000E+00  0.0000E+00  0.0000E+00
    -33.485  0.7646E-03  0.0000E+00  0.2036E-03  0.0000E+00  0.0000E+00  0.0000E+00
    -33.359  0.1408E-01  0.0000E+00  0.3750E-02  0.0000E+00  0.0000E+00  0.0000E+00
    -33.233  0.1221E+00  0.0000E+00  0.3251E-01  0.0000E+00  0.0000E+00  0.0000E+00
    -33.107  0.5011E+00  0.0000E+00  0.1334E+00  0.0000E+00  0.0000E+00  0.0000E+00
    -32.982  0.9781E+00  0.0000E+00  0.2604E+00  0.0000E+00  0.0000E+00  0.0000E+00
    -32.856  0.9105E+00  0.5684E-13  0.2424E+00  0.1710E-13  0.0000E+00  0.0000E+00
    -32.730  0.4040E+00  0.3603E-10  0.1076E+00  0.1085E-10  0.0000E+00  0.0000E+00
    -32.604  0.8522E-01  0.1052E-07  0.2269E-01  0.3169E-08  0.0000E+00  0.0000E+00
    -32.479  0.8500E-02  0.1419E-05  0.2263E-02  0.4274E-06  0.0000E+00  0.0000E+00
    -32.353  0.3985E-03  0.8878E-04  0.1061E-03  0.2673E-04  0.0000E+00  0.0000E+00
    -32.227  0.8731E-05  0.2589E-02  0.2325E-05  0.7796E-03  0.0000E+00  0.0000E+00
    -32.101  0.8889E-07  0.3540E-01  0.2367E-07  0.1066E-01  0.0000E+00  0.0000E+00
    -31.976  0.4186E-09  0.2283E+00  0.1115E-09  0.6876E-01  0.0000E+00  0.0000E+00
    -31.850  0.9087E-12  0.6987E+00  0.2419E-12  0.2104E+00  0.0000E+00  0.0000E+00
    -31.724  0.7772E-15  0.1018E+01  0.1388E-15  0.3066E+00  0.0000E+00  0.0000E+00
    -31.598  0.0000E+00  0.7079E+00  0.0000E+00  0.2132E+00  0.0000E+00  0.0000E+00
    -31.473  0.0000E+00  0.2344E+00  0.0000E+00  0.7058E-01  0.0000E+00  0.0000E+00
    -31.347  0.0000E+00  0.3682E-01  0.0000E+00  0.1109E-01  0.0000E+00  0.0000E+00
    -31.221  0.0000E+00  0.2729E-02  0.0000E+00  0.8217E-03  0.0000E+00  0.0000E+00
    -31.095  0.0000E+00  0.9484E-04  0.0000E+00  0.2856E-04  0.0000E+00  0.0000E+00
    -30.969  0.0000E+00  0.1537E-05  0.0000E+00  0.4627E-06  0.0000E+00  0.0000E+00
    -30.844  0.0000E+00  0.1155E-07  0.0000E+00  0.3477E-08  0.0000E+00  0.0000E+00
    -30.718  0.0000E+00  0.4008E-10  0.0000E+00  0.1207E-10  0.0000E+00  0.0000E+00
    -30.592  0.0000E+00  0.6387E-13  0.0000E+00  0.1923E-13  0.0000E+00  0.0000E+00
    -30.466  0.0000E+00  0.0000E+00  0.0000E+00  0.0000E+00  0.0000E+00  0.0000E+00
    -30.341  0.0000E+00  0.0000E+00  0.0000E+00  0.0000E+00  0.0000E+00  0.0000E+00
    -30.215  0.0000E+00  0.0000E+00  0.0000E+00  0.0000E+00  0.0000E+00  0.0000E+00
    -30.089  0.0000E+00  0.0000E+00  0.0000E+00  0.0000E+00  0.0000E+00  0.0000E+00
    -29.963  0.0000E+00  0.0000E+00  0.0000E+00  0.0000E+00  0.0000E+00  0.0000E+00
    -29.838  0.0000E+00  0.0000E+00  0.0000E+00  0.0000E+00  0.0000E+00  0.0000E+00
    -29.712  0.0000E+00  0.0000E+00  0.0000E+00  0.0000E+00  0.0000E+00  0.0000E+00
    -29.586  0.0000E+00  0.0000E+00  0.0000E+00  0.0000E+00  0.0000E+00  0.0000E+00
    -29.460  0.0000E+00  0.0000E+00  0.0000E+00  0.0000E+00  0.0000E+00  0.0000E+00
    -29.335  0.0000E+00  0.0000E+00  0.0000E+00  0.0000E+00  0.0000E+00  0.0000E+00
    -29.209  0.0000E+00  0.0000E+00  0.0000E+00  0.0000E+00  0.0000E+00  0.0000E+00
    -29.083  0.0000E+00  0.0000E+00  0.0000E+00  0.0000E+00  0.0000E+00  0.0000E+00
    -28.957  0.0000E+00  0.0000E+00  0.0000E+00  0.0000E+00  0.0000E+00  0.0000E+00
    -28.832  0.0000E+00  0.0000E+00  0.0000E+00  0.0000E+00  0.0000E+00  0.0000E+00
    -28.706  0.0000E+00  0.0000E+00  0.0000E+00  0.0000E+00  0.0000E+00  0.0000E+00
    -28.580  0.0000E+00  0.0000E+00  0.0000E+00  0.0000E+00  0.0000E+00  0.0000E+00
    -28.454  0.0000E+00  0.0000E+00  0.0000E+00  0.0000E+00  0.0000E+00  0.0000E+00
    -28.328  0.0000E+00  0.0000E+00  0.0000E+00  0.0000E+00  0.0000E+00  0.0000E+00
    -28.203  0.0000E+00  0.0000E+00  0.0000E+00  0.0000E+00  0.0000E+00  0.0000E+00
    -28.077  0.0000E+00  0.0000E+00  0.0000E+00  0.0000E+00  0.0000E+00  0.0000E+00
    -27.951  0.0000E+00  0.0000E+00  0.0000E+00  0.0000E+00  0.0000E+00  0.0000E+00
    -27.825  0.0000E+00  0.0000E+00  0.0000E+00  0.0000E+00  0.0000E+00  0.0000E+00
    -27.700  0.0000E+00  0.0000E+00  0.0000E+00  0.0000E+00  0.0000E+00  0.0000E+00
    -27.574  0.0000E+00  0.0000E+00  0.0000E+00  0.0000E+00  0.0000E+00  0.0000E+00
    -27.448  0.0000E+00  0.0000E+00  0.0000E+00  0.0000E+00  0.0000E+00  0.0000E+00
    -27.322  0.0000E+00  0.0000E+00  0.0000E+00  0.0000E+00  0.0000E+00  0.0000E+00
    -27.197  0.0000E+00  0.0000E+00  0.0000E+00  0.0000E+00  0.0000E+00  0.0000E+00
    -27.071  0.0000E+00  0.0000E+00  0.0000E+00  0.0000E+00  0.0000E+00  0.0000E+00
    -26.945  0.0000E+00  0.0000E+00  0.0000E+00  0.0000E+00  0.0000E+00  0.0000E+00
    -26.819  0.0000E+00  0.0000E+00  0.0000E+00  0.0000E+00  0.0000E+00  0.0000E+00
    -26.694  0.0000E+00  0.0000E+00  0.0000E+00  0.0000E+00  0.0000E+00  0.0000E+00
    -26.568  0.0000E+00  0.0000E+00  0.0000E+00  0.0000E+00  0.0000E+00  0.0000E+00
    -26.442  0.0000E+00  0.0000E+00  0.0000E+00  0.0000E+00  0.0000E+00  0.0000E+00
    -26.316  0.0000E+00  0.0000E+00  0.0000E+00  0.0000E+00  0.0000E+00  0.0000E+00
    -26.191  0.0000E+00  0.0000E+00  0.0000E+00  0.0000E+00  0.0000E+00  0.0000E+00
    -26.065  0.0000E+00  0.0000E+00  0.0000E+00  0.0000E+00  0.0000E+00  0.0000E+00
    -25.939  0.0000E+00  0.0000E+00  0.0000E+00  0.0000E+00  0.0000E+00  0.0000E+00
    -25.813  0.0000E+00  0.0000E+00  0.0000E+00  0.0000E+00  0.0000E+00  0.0000E+00
    -25.688  0.0000E+00  0.0000E+00  0.0000E+00  0.0000E+00  0.0000E+00  0.0000E+00
    -25.562  0.0000E+00  0.0000E+00  0.0000E+00  0.0000E+00  0.0000E+00  0.0000E+00
    -25.436  0.0000E+00  0.0000E+00  0.0000E+00  0.0000E+00  0.0000E+00  0.0000E+00
    -25.310  0.0000E+00  0.0000E+00  0.0000E+00  0.0000E+00  0.0000E+00  0.0000E+00
    -25.184  0.0000E+00  0.0000E+00  0.0000E+00  0.0000E+00  0.0000E+00  0.0000E+00
    -25.059  0.0000E+00  0.0000E+00  0.0000E+00  0.0000E+00  0.0000E+00  0.0000E+00
    -24.933  0.0000E+00  0.0000E+00  0.0000E+00  0.0000E+00  0.0000E+00  0.0000E+00
    -24.807  0.0000E+00  0.0000E+00  0.0000E+00  0.0000E+00  0.0000E+00  0.0000E+00
    -24.681  0.0000E+00  0.0000E+00  0.0000E+00  0.0000E+00  0.0000E+00  0.0000E+00
    -24.556  0.0000E+00  0.0000E+00  0.0000E+00  0.0000E+00  0.0000E+00  0.0000E+00
    -24.430  0.0000E+00  0.0000E+00  0.0000E+00  0.0000E+00  0.0000E+00  0.0000E+00
    -24.304  0.0000E+00  0.0000E+00  0.0000E+00  0.0000E+00  0.0000E+00  0.0000E+00
    -24.178  0.0000E+00  0.0000E+00  0.0000E+00  0.0000E+00  0.0000E+00  0.0000E+00
    -24.053  0.0000E+00  0.0000E+00  0.0000E+00  0.0000E+00  0.0000E+00  0.0000E+00
    -23.927  0.0000E+00  0.0000E+00  0.0000E+00  0.0000E+00  0.0000E+00  0.0000E+00
    -23.801  0.0000E+00  0.0000E+00  0.0000E+00  0.0000E+00  0.0000E+00  0.0000E+00
    -23.675  0.0000E+00  0.0000E+00  0.0000E+00  0.0000E+00  0.0000E+00  0.0000E+00
    -23.550  0.0000E+00  0.0000E+00  0.0000E+00  0.0000E+00  0.0000E+00  0.0000E+00
    -23.424  0.0000E+00  0.0000E+00  0.0000E+00  0.0000E+00  0.0000E+00  0.0000E+00
    -23.298  0.0000E+00  0.0000E+00  0.0000E+00  0.0000E+00  0.0000E+00  0.0000E+00
    -23.172  0.0000E+00  0.0000E+00  0.0000E+00  0.0000E+00  0.0000E+00  0.0000E+00
    -23.047  0.0000E+00  0.0000E+00  0.0000E+00  0.0000E+00  0.0000E+00  0.0000E+00
    -22.921  0.0000E+00  0.0000E+00  0.0000E+00  0.0000E+00  0.0000E+00  0.0000E+00
    -22.795  0.0000E+00  0.0000E+00  0.0000E+00  0.0000E+00  0.0000E+00  0.0000E+00
    -22.669  0.0000E+00  0.0000E+00  0.0000E+00  0.0000E+00  0.0000E+00  0.0000E+00
    -22.543  0.0000E+00  0.0000E+00  0.0000E+00  0.0000E+00  0.0000E+00  0.0000E+00
    -22.418  0.0000E+00  0.0000E+00  0.0000E+00  0.0000E+00  0.0000E+00  0.0000E+00
    -22.292  0.0000E+00  0.0000E+00  0.0000E+00  0.0000E+00  0.0000E+00  0.0000E+00
    -22.166  0.0000E+00  0.0000E+00  0.0000E+00  0.0000E+00  0.0000E+00  0.0000E+00
    -22.040  0.0000E+00  0.0000E+00  0.0000E+00  0.0000E+00  0.0000E+00  0.0000E+00
    -21.915  0.4406E-14  0.0000E+00  0.5354E-15  0.0000E+00  0.0000E+00  0.0000E+00
    -21.789  0.3671E-11  0.0000E+00  0.4461E-12  0.0000E+00  0.0000E+00  0.0000E+00
    -21.663  0.1418E-08  0.0000E+00  0.1723E-09  0.0000E+00  0.0000E+00  0.0000E+00
    -21.537  0.2527E-06  0.0000E+00  0.3070E-07  0.0000E+00  0.0000E+00  0.0000E+00
    -21.412  0.2084E-04  0.0000E+00  0.2533E-05  0.0000E+00  0.0000E+00  0.0000E+00
    -21.286  0.8000E-03  0.0000E+00  0.9721E-04  0.0000E+00  0.0000E+00  0.0000E+00
    -21.160  0.1437E-01  0.0000E+00  0.1746E-02  0.0000E+00  0.0000E+00  0.0000E+00
    -21.034  0.1214E+00  0.0000E+00  0.1476E-01  0.0000E+00  0.0000E+00  0.0000E+00
    -20.909  0.4861E+00  0.0000E+00  0.5906E-01  0.0000E+00  0.0000E+00  0.0000E+00
    -20.783  0.9255E+00  0.0000E+00  0.1125E+00  0.0000E+00  0.0000E+00  0.0000E+00
    -20.657  0.8404E+00  0.0000E+00  0.1021E+00  0.0000E+00  0.0000E+00  0.0000E+00
    -20.531  0.3637E+00  0.0000E+00  0.4420E-01  0.0000E+00  0.0000E+00  0.0000E+00
    -20.406  0.7482E-01  0.0000E+00  0.9091E-02  0.0000E+00  0.0000E+00  0.0000E+00
    -20.280  0.7277E-02  0.0000E+00  0.8842E-03  0.0000E+00  0.0000E+00  0.0000E+00
    -20.154  0.3326E-03  0.4618E-15  0.4041E-04  0.6332E-16  0.0000E+00  0.0000E+00
    -20.028  0.7102E-05  0.5531E-12  0.8629E-06  0.7587E-13  0.0000E+00  0.0000E+00
    -19.903  0.7046E-07  0.2675E-09  0.8561E-08  0.3669E-10  0.0000E+00  0.0000E+00
    -19.777  0.3233E-09  0.5961E-07  0.3928E-10  0.8176E-08  0.0000E+00  0.0000E+00
    -19.651  0.6836E-12  0.6143E-05  0.8306E-13  0.8427E-06  0.0000E+00  0.0000E+00
    -19.525  0.6294E-15  0.2941E-03  0.7648E-16  0.4035E-04  0.0000E+00  0.0000E+00
    -19.399  0.0000E+00  0.6578E-02  0.0000E+00  0.9023E-03  0.0000E+00  0.0000E+00
    -19.274  0.0000E+00  0.6913E-01  0.0000E+00  0.9482E-02  0.0000E+00  0.0000E+00
    -19.148  0.0000E+00  0.3434E+00  0.0000E+00  0.4710E-01  0.0000E+00  0.0000E+00
    -19.022  0.0000E+00  0.8106E+00  0.0000E+00  0.1112E+00  0.0000E+00  0.0000E+00
    -18.896  0.0000E+00  0.9120E+00  0.0000E+00  0.1251E+00  0.0000E+00  0.0000E+00
    -18.771  0.0000E+00  0.4894E+00  0.0000E+00  0.6713E-01  0.0000E+00  0.0000E+00
    -18.645  0.0000E+00  0.1249E+00  0.0000E+00  0.1714E-01  0.0000E+00  0.0000E+00
    -18.519  0.0000E+00  0.1510E-01  0.0000E+00  0.2072E-02  0.0000E+00  0.0000E+00
    -18.393  0.0000E+00  0.8597E-03  0.0000E+00  0.1179E-03  0.0000E+00  0.0000E+00
    -18.268  0.0000E+00  0.2290E-04  0.0000E+00  0.3141E-05  0.0000E+00  0.0000E+00
    -18.142  0.0000E+00  0.2838E-06  0.0000E+00  0.3893E-07  0.0000E+00  0.0000E+00
    -18.016  0.0000E+00  0.1629E-08  0.0000E+00  0.2235E-09  0.0000E+00  0.0000E+00
    -17.890  0.0000E+00  0.4313E-11  0.0000E+00  0.5916E-12  0.0000E+00  0.0000E+00
    -17.765  0.0000E+00  0.5232E-14  0.0000E+00  0.7177E-15  0.0000E+00  0.0000E+00