    2    2    5    2
  0.4000000E+04  0.2000000E-08  0.2000000E-08  0.2000000E-08  0.1500000E-15
  1.000000000000000E-004
  CAR 
 unknown system                          
     12      1     20
 
  0.0000000E+00  0.0000000E+00  0.0000000E+00  0.1000000E+01
      1        -32.993810      -31.785803   1.000000   1.000000
      2        -20.799238      -19.002153   1.000000   1.000000
      3        -13.549628      -12.644694   1.000000   1.000000
      4        -13.459775      -11.600885   1.000000   1.000000
      5        -13.459775      -11.600885   1.000000   1.000000
      6         -6.991353       -4.694731   1.000000   0.000000
      7         -6.991353       -4.694731   1.000000   0.000000
      8         -0.211368       -0.125208   0.000000   0.000000
      9          0.096423        0.147156   0.000000   0.000000
     10          0.214316        0.267764   0.000000   0.000000
     11          0.309088        0.333394   0.000000   0.000000
     12          0.309088        0.333394   0.000000   0.000000
     13          0.329239        0.342781   0.000000   0.000000
     14          0.329841        0.344836   0.000000   0.000000
     15          0.499149        0.561851   0.000000   0.000000
     16          0.558328        0.580779   0.000000   0.000000
     17          0.623911        0.660558   0.000000   0.000000
     18          0.623911        0.660558   0.000000   0.000000
     19          0.677522        0.693242   0.000000   0.000000
     20          0.724068        0.734427   0.000000   0.000000
