 vasp.6.4.3 19Mar24 (build Jul 09 2024 15:45:28) complex                        
  
 executed on             LinuxIFC date 2024.10.29  11:58:04
 running   40 mpi-ranks, on    1 nodes
 distrk:  each k-point on   40 cores,    1 groups
 distr:  one band on NCORE=   4 cores,   10 groups


--------------------------------------------------------------------------------------------------------


 INCAR:
   ENCUT = 400.000000
   POTIM = 0.150000
   EDIFF = 1.00e-04
   EDIFFG = -1.00e-01
   ALGO = Normal
   GGA = PE
   PREC = Normal
   IBRION = 2
   ISMEAR = 0
   ISPIN = 2
   LORBIT = 10
   NELM = 30
   NELMIN = 5
   NPAR = 10
   NSIM = 10
   NSW = 5
   KGAMMA = .TRUE.
   LASPH = .TRUE.
   LCHARG = .FALSE.
   LDIPOL = .FALSE.
   LWAVE = .FALSE.
   LREAL = .TRUE.
   MAGMOM = 2*1.0000

 POTCAR:    PAW_PBE O 08Apr2002                   
 POTCAR:    PAW_PBE O 08Apr2002                   
   SHA256 =  818f92134a0a090dccd8ba1447fa70422a3b330e708bb4f08108d8ae51209ddf O/POTCAR              
   COPYR  = (c) Copyright 08Apr2002 Georg Kresse                                                    
   COPYR  = This file is part of the software VASP. Any use, copying, and all other rights are regul
   COPYR  = If you do not have a valid VASP license, you may not use, copy or distribute this file. 
   VRHFIN =O: s2p4                                                                                  
   LEXCH  = PE                                                                                      
   EATOM  =   432.3788 eV,   31.7789 Ry                                                             
                                                                                                    
   TITEL  = PAW_PBE O 08Apr2002                                                                     
   LULTRA =        F    use ultrasoft PP ?                                                          
   IUNSCR =        1    unscreen: 0-lin 1-nonlin 2-no                                               
   RPACOR =    1.200    partial core radius                                                         
   POMASS =   16.000; ZVAL   =    6.000    mass and valenz                                          
   RCORE  =    1.520    outmost cutoff radius                                                       
   RWIGS  =    1.550; RWIGS  =    0.820    wigner-seitz radius (au A)                               
   ENMAX  =  400.000; ENMIN  =  300.000 eV                                                          
   ICORE  =        2    local potential                                                             
   LCOR   =        T    correct aug charges                                                         
   LPAW   =        T    paw PP                                                                      
   EAUG   =  605.392                                                                                
   DEXC   =    0.000                                                                                
   RMAX   =    1.553    core radius for proj-oper                                                   
   RAUG   =    1.300    factor for augmentation sphere                                              
   RDEP   =    1.550    radius for radial grids                                                     
   RDEPT  =    1.329    core radius for aug-charge                                                  
                                                                                                    
   Atomic configuration                                                                             
    4 entries                                                                                       
     n  l   j            E        occ.                                                              
     1  0  0.50      -514.6923   2.0000                                                             
     2  0  0.50       -23.9615   2.0000                                                             
     2  1  0.50        -9.0305   4.0000                                                             
     3  2  1.50        -9.5241   0.0000                                                             
   Description                                                                                      
     l       E           TYP  RCUT    TYP  RCUT                                                     
     0    -23.9615318     23  1.200                                                                 
     0     -9.5240782     23  1.200                                                                 
     1     -9.0304911     23  1.520                                                                 
     1      8.1634956     23  1.520                                                                 
     2     -9.5240782      7  1.500                                                                 
  local pseudopotential read in
  partial core-charges read in
  partial kinetic energy density read in
  kinetic energy density of atom read in
  atomic valenz-charges read in
  non local Contribution for L=           0  read in
    real space projection operators read in
  non local Contribution for L=           0  read in
    real space projection operators read in
  non local Contribution for L=           1  read in
    real space projection operators read in
  non local Contribution for L=           1  read in
    real space projection operators read in
    PAW grid and wavefunctions read in
 
   number of l-projection  operators is LMAX  =           4
   number of lm-projection operators is LMMAX =           8
 
 -----------------------------------------------------------------------------
|                                                                             |
|               ----> ADVICE to this user running VASP <----                  |
|                                                                             |
|     You have a (more or less) 'small supercell' and for smaller cells       |
|     it is recommended to use the reciprocal-space projection scheme!        |
|     The real-space optimization is not efficient for small cells and it     |
|     is also less accurate ...                                               |
|     Therefore, set LREAL=.FALSE. in the INCAR file.                         |
|                                                                             |
 -----------------------------------------------------------------------------

 -----------------------------------------------------------------------------
|                                                                             |
|           W    W    AA    RRRRR   N    N  II  N    N   GGGG   !!!           |
|           W    W   A  A   R    R  NN   N  II  NN   N  G    G  !!!           |
|           W    W  A    A  R    R  N N  N  II  N N  N  G       !!!           |
|           W WW W  AAAAAA  RRRRR   N  N N  II  N  N N  G  GGG   !            |
|           WW  WW  A    A  R   R   N   NN  II  N   NN  G    G                |
|           W    W  A    A  R    R  N    N  II  N    N   GGGG   !!!           |
|                                                                             |
|     The real-space projection scheme for the treatment of the non-local     |
|     pseudopotentials has been switched on but on file POTCAR I have not     |
|     found any entries, signalling me that you have never performed a        |
|     real-space optimization of all non-local projectors! BE WARNED that     |
|     a calculation using the real-space projection scheme together with      |
|     non-local projectors which were not real-space optimized (according     |
|     to the plane-wave cutoff used in this calculation) might give more      |
|     or less inaccurate results. I hope you know what you are doing.         |
|                                                                             |
 -----------------------------------------------------------------------------

  PAW_PBE O 08Apr2002                   :
 energy of atom  1       EATOM= -432.3788
 kinetic energy error for atom=    0.1156 (will be added to EATOM!!)
 
 
 POSCAR: O
  positions in cartesian coordinates
  No initial velocities read in


 exchange-correlation table for PE
   RHO(1)=    0.500       N(1)  =     2000
   RHO(2)=  100.500       N(2)  =     4000

 VTST: version 4.1, (05/19/21)

 CHAIN: initializing optimizer
 
 OPT: Using VASP Conjugate-Gradient optimizer
 CHAIN: Read ICHAIN            0
 
 POSCAR: O
  positions in cartesian coordinates
  No initial velocities read in
 


--------------------------------------------------------------------------------------------------------


 ion  position               nearest neighbor table
   1  0.500  0.500  0.531-   2 1.25
   2  0.500  0.500  0.469-   1 1.25
 
  LATTYP: Found a simple cubic cell.
 ALAT       =    20.0000000000
  
  Lattice vectors:
  
 A1 = (  20.0000000000,   0.0000000000,   0.0000000000)
 A2 = (   0.0000000000,  20.0000000000,   0.0000000000)
 A3 = (   0.0000000000,   0.0000000000,  20.0000000000)


Analysis of symmetry for initial positions (statically):
=====================================================================
 Subroutine PRICEL returns:
 Original cell was already a primitive cell.
 

 Routine SETGRP: Setting up the symmetry group for a 
 simple cubic supercell.


 Subroutine GETGRP returns: Found 16 space group operations
 (whereof 16 operations were pure point group operations)
 out of a pool of 48 trial point group operations.


The static configuration has the point symmetry D_4h.


Analysis of symmetry for dynamics (positions and initial velocities):
=====================================================================
 Subroutine PRICEL returns:
 Original cell was already a primitive cell.
 

 Routine SETGRP: Setting up the symmetry group for a 
 simple cubic supercell.


 Subroutine GETGRP returns: Found 16 space group operations
 (whereof 16 operations were pure point group operations)
 out of a pool of 48 trial point group operations.


The dynamic configuration has the point symmetry D_4h.


Analysis of structural, dynamic, and magnetic symmetry:
=====================================================================
 Subroutine PRICEL returns:
 Original cell was already a primitive cell.
 

 Routine SETGRP: Setting up the symmetry group for a 
 simple cubic supercell.


 Subroutine GETGRP returns: Found 16 space group operations
 (whereof 16 operations were pure point group operations)
 out of a pool of 48 trial point group operations.


The overall configuration has the point symmetry D_4h.


 Subroutine INISYM returns: Found 16 space group operations
 (whereof 16 operations are pure point group operations),
 and found     1 'primitive' translations


----------------------------------------------------------------------------------------

                                     Primitive cell                                     

  volume of cell :    8000.0000

  direct lattice vectors                    reciprocal lattice vectors
    20.000000000  0.000000000  0.000000000     0.050000000  0.000000000  0.000000000
     0.000000000 20.000000000  0.000000000     0.000000000  0.050000000  0.000000000
     0.000000000  0.000000000 20.000000000     0.000000000  0.000000000  0.050000000

  length of vectors
    20.000000000 20.000000000 20.000000000     0.050000000  0.050000000  0.050000000

  position of ions in fractional coordinates (direct lattice)
     0.500000000  0.500000000  0.531148900
     0.500000000  0.500000000  0.468851100

  ion indices of the primitive-cell ions
   primitive index   ion index
                 1           1
                 2           2

----------------------------------------------------------------------------------------

 
 
 KPOINTS: KPOINTS created by Atomic Simulation Env

Automatic generation of k-mesh.
 Grid dimensions read from file:
 generate k-points for:    1    1    1

 Generating k-lattice:

  Cartesian coordinates                     Fractional coordinates (reciprocal lattice)
     0.050000000  0.000000000  0.000000000     1.000000000  0.000000000  0.000000000
     0.000000000  0.050000000  0.000000000     0.000000000  1.000000000  0.000000000
     0.000000000  0.000000000  0.050000000     0.000000000  0.000000000  1.000000000

  Length of vectors
     0.050000000  0.050000000  0.050000000

  Shift w.r.t. Gamma in fractional coordinates (k-lattice)
     0.000000000  0.000000000  0.000000000

 
 Subroutine IBZKPT returns following result:
 ===========================================
 
 Found      1 irreducible k-points:
 
 Following reciprocal coordinates:
            Coordinates               Weight
  0.000000  0.000000  0.000000      1.000000
 
 Following cartesian coordinates:
            Coordinates               Weight
  0.000000  0.000000  0.000000      1.000000
 


--------------------------------------------------------------------------------------------------------




 Dimension of arrays:
   k-points           NKPTS =      1   k-points in BZ     NKDIM =      1   number of bands    NBANDS=     20
   number of dos      NEDOS =    301   number of ions     NIONS =      2
   non local maximal  LDIM  =      4   non local SUM 2l+1 LMDIM =      8
   total plane-waves  NPLWV = 941192
   max r-space proj   IRMAX =    323   max aug-charges    IRDMAX=   1726
   dimension x,y,z NGX =    98 NGY =   98 NGZ =   98
   dimension x,y,z NGXF=   196 NGYF=  196 NGZF=  196
   support grid    NGXF=   196 NGYF=  196 NGZF=  196
   ions per type =               2
   NGX,Y,Z   is equivalent  to a cutoff of   8.15,  8.15,  8.15 a.u.
   NGXF,Y,Z  is equivalent  to a cutoff of  16.29, 16.29, 16.29 a.u.

 SYSTEM =  unknown system                          
 POSCAR =  O                                       

 Startparameter for this run:
   NWRITE =      2    write-flag & timer
   PREC   = normal    normal or accurate (medium, high low for compatibility)
   ISTART =      0    job   : 0-new  1-cont  2-samecut
   ICHARG =      2    charge: 1-file 2-atom 10-const
   ISPIN  =      2    spin polarized calculation?
   LNONCOLLINEAR =      F non collinear calculations
   LSORBIT =      F    spin-orbit coupling
   INIWAV =      1    electr: 0-lowe 1-rand  2-diag
   LASPH  =      T    aspherical Exc in radial PAW
 Electronic Relaxation 1
   ENCUT  =  400.0 eV  29.40 Ry    5.42 a.u.  32.61 32.61 32.61*2*pi/ulx,y,z
   ENINI  =  400.0     initial cutoff
   ENAUG  =  605.4 eV  augmentation charge cutoff
   NELM   =     30;   NELMIN=  5; NELMDL= -5     # of ELM steps 
   EDIFF  = 0.1E-03   stopping-criterion for ELM
   LREAL  =      T    real-space projection
   NLSPLINE    = F    spline interpolate recip. space projectors
   LCOMPAT=      F    compatible to vasp.4.4
   GGA_COMPAT  = T    GGA compatible to vasp.4.4-vasp.4.6
   LMAXPAW     = -100 max onsite density
   LMAXMIX     =    2 max onsite mixed and CHGCAR
   VOSKOWN=      0    Vosko Wilk Nusair interpolation
   ROPT   =    0.00000
 Ionic relaxation
   EDIFFG = -.1E+00   stopping-criterion for IOM
   NSW    =      5    number of steps for IOM
   NBLOCK =      1;   KBLOCK =      5    inner block; outer block 
   IBRION =      2    ionic relax: 0-MD 1-quasi-New 2-CG
   NFREE  =      1    steps in history (QN), initial steepest desc. (CG)
   ISIF   =      2    stress and relaxation
   IWAVPR =     11    prediction:  0-non 1-charg 2-wave 3-comb
   ISYM   =      2    0-nonsym 1-usesym 2-fastsym
   LCORR  =      T    Harris-Foulkes like correction to forces

   POTIM  = 0.1500    time-step for ionic-motion
   TEIN   =    0.0    initial temperature
   TEBEG  =    0.0;   TEEND  =   0.0 temperature during run
   SMASS  =  -3.00    Nose mass-parameter (am)
   estimated Nose-frequenzy (Omega)   =  0.10E-29 period in steps = 0.42E+47 mass=  -0.914E-26a.u.
   SCALEE = 1.0000    scale energy and forces
   NPACO  =    256;   APACO  = 10.0  distance and # of slots for P.C.
   PSTRESS=    0.0 pullay stress

  Mass of Ions in am
   POMASS =  16.00
  Ionic Valenz
   ZVAL   =   6.00
  Atomic Wigner-Seitz radii
   RWIGS  =  -1.00
  virtual crystal weights 
   VCA    =   1.00
   NELECT =      12.0000    total number of electrons
   NUPDOWN=      -1.0000    fix difference up-down

 DOS related values:
   EMIN   =  10.00;   EMAX   =-10.00  energy-range for DOS
   EFERMI =   0.00;   METHOD = LEGACY      
   ISMEAR =     0;   SIGMA  =   0.20  broadening in eV -4-tet -1-fermi 0-gaus

 Electronic relaxation 2 (details)
   IALGO  =     38    algorithm
   LDIAG  =      T    sub-space diagonalisation (order eigenvalues)
   LSUBROT=      F    optimize rotation matrix (better conditioning)
   TURBO    =      0    0=normal 1=particle mesh
   IRESTART =      0    0=no restart 2=restart with 2 vectors
   NREBOOT  =      0    no. of reboots
   NMIN     =      0    reboot dimension
   EREF     =   0.00    reference energy to select bands
   IMIX   =      4    mixing-type and parameters
     AMIX     =   0.40;   BMIX     =  1.00
     AMIX_MAG =   1.60;   BMIX_MAG =  1.00
     AMIN     =   0.10
     WC   =   100.;   INIMIX=   1;  MIXPRE=   1;  MAXMIX= -45

 Intra band minimization:
   WEIMIN = 0.0010     energy-eigenvalue tresh-hold
   EBREAK =  0.13E-05  absolut break condition
   DEPER  =   0.30     relativ break condition  

   TIME   =   0.40     timestep for ELM

  volume/ion in A,a.u.               =    4000.00     26993.33
  Fermi-wavevector in a.u.,A,eV,Ry     =   0.187401  0.354137  0.477825  0.035119
  Thomas-Fermi vector in A             =   0.923081
 
 Write flags
   LWAVE        =      F    write WAVECAR
   LDOWNSAMPLE  =      F    k-point downsampling of WAVECAR
   LCHARG       =      F    write CHGCAR
   LVTOT        =      F    write LOCPOT, total local potential
   LVHAR        =      F    write LOCPOT, Hartree potential only
   WRT_POTENTIAL= false  ! write potential to hdf5 file
   LELF         =      F    write electronic localiz. function (ELF)
   LORBIT       =     10    0 simple, 1 ext, 2 COOP (PROOUT), +10 PAW based schemes


 Dipole corrections
   LMONO      =      F    monopole corrections only (constant potential shift)
   LDIPOL     =      F    correct potential (dipole corrections)
   IDIPOL     =      0    1-x, 2-y, 3-z, 4-all directions 
   EPSILON    =  1.0000000 bulk dielectric constant
   LVACPOTAV  =      F  vacuum potentials using an averaging scheme for the charge density
   VACPOTFLAT =  0.1000000 required flatness to determine vacuum potential
 Exchange correlation treatment:
   GGA     = PE    functional components
   XC_C    = 1    coefficients multiplying the functional components
   LIBXC   =     F    Libxc                    
   VOSKOWN =     0    Vosko Wilk Nusair interpolation
   LHFCALC =     F    Hartree Fock is set to
   LHFONE  =     F    Hartree Fock one center treatment
   AEXX    =    0.0000 exact exchange contribution

 Parameters of functionals:
   PE:
     No parameter
 
 Van der Waals corrections
   IVDW    =     0    specifies the selected vdW correction

 Linear response parameters
   LEPSILON=     F    determine dielectric tensor
   LRPA    =     F    only Hartree local field effects (RPA)
   LNABLA  =     F    use nabla operator in PAW spheres
   LVEL    =     F    velocity operator in full k-point grid
   CSHIFT  =0.1000    complex shift for real part using Kramers Kronig
   OMEGAMAX=  -1.0    maximum frequency
   DEG_THRESHOLD= 0.2000000E-02 threshold for treating states as degnerate
   RTIME   =   -0.100 relaxation time in fs
  (WPLASMAI=    0.000 imaginary part of plasma frequency in eV, 0.658/RTIME)
   DFIELD  = 0.0000000 0.0000000 0.0000000 field for delta impulse in time
 
  Optional k-point grid parameters
   LKPOINTS_OPT  =     F    use optional k-point grid
   KPOINTS_OPT_MODE=     1    mode for optional k-point grid
 
 Orbital magnetization related:
   ORBITALMAG=     F  switch on orbital magnetization
   LCHIMAG   =     F  perturbation theory with respect to B field
   DQ        =  0.001000  dq finite difference perturbation B field
   LLRAUG    =     F  two centre corrections for induced B field
   LBONE     =     F  B-component reconstruction in AE one-centre
   LVGVCALC  =     T  calculate vGv susceptibility
   LVGVAPPL  =     F  apply vGv susceptibility instead of pGv for G=0

 Random number generation:
   RANDOM_GENERATOR = DEFAULT
   PCG_SEED         = not used


--------------------------------------------------------------------------------------------------------


 conjugate gradient relaxation of ions
 charge density and potential will be updated during run
 spin polarized calculation
 Variant of blocked Davidson
 Davidson routine will perform the subspace rotation
 perform sub-space diagonalisation
    after iterative eigenvector-optimisation
 modified Broyden-mixing scheme, WC =      100.0
 initial mixing is a Kerker type mixing with AMIX =  0.4000 and BMIX =      1.0000
 Hartree-type preconditioning will be used
 using additional bands           14
 real space projection scheme for non local part
 use partial core corrections
 calculate Harris-corrections to forces 
   (improved forces if not selfconsistent)
 use gradient corrections 
 use of overlap-Matrix (Vanderbilt PP)
 Gauss-broadening in eV      SIGMA  =   0.20


--------------------------------------------------------------------------------------------------------


  energy-cutoff  :      400.00
  volume of cell :     8000.00
      direct lattice vectors                 reciprocal lattice vectors
    20.000000000  0.000000000  0.000000000     0.050000000  0.000000000  0.000000000
     0.000000000 20.000000000  0.000000000     0.000000000  0.050000000  0.000000000
     0.000000000  0.000000000 20.000000000     0.000000000  0.000000000  0.050000000

  length of vectors
    20.000000000 20.000000000 20.000000000     0.050000000  0.050000000  0.050000000


 
 k-points in units of 2pi/SCALE and weight: KPOINTS created by Atomic Simulation Env
   0.00000000  0.00000000  0.00000000       1.000
 
 k-points in reciprocal lattice and weights: KPOINTS created by Atomic Simulation Env
   0.00000000  0.00000000  0.00000000       1.000
 
 position of ions in fractional coordinates (direct lattice) 
   0.50000000  0.50000000  0.53114890
   0.50000000  0.50000000  0.46885110
 
 position of ions in cartesian coordinates  (Angst):
  10.00000000 10.00000000 10.62297800
  10.00000000 10.00000000  9.37702200
 


--------------------------------------------------------------------------------------------------------


 k-point     1 :   0.0000 0.0000 0.0000  plane waves:  145165

 maximum and minimum number of plane-waves per node :     36308    36275

 maximum number of plane-waves:    145165
 maximum index in each direction: 
   IXMAX=   32   IYMAX=   32   IZMAX=   32
   IXMIN=  -32   IYMIN=  -32   IZMIN=  -32


 real space projection operators:
  total allocation   :         31.50 KBytes
  max/ min on nodes  :          9.25          5.75


 parallel 3D FFT for wavefunctions:
    minimum data exchange during FFTs selected (reduces bandwidth)
 parallel 3D FFT for charge:
    minimum data exchange during FFTs selected (reduces bandwidth)


 total amount of memory used by VASP MPI-rank0    79489. kBytes
=======================================================================

   base      :      30000. kBytes
   nonlr-proj:         18. kBytes
   fftplans  :      13916. kBytes
   grid      :      33225. kBytes
   one-center:          6. kBytes
   wavefun   :       2324. kBytes
 
     INWAV:  cpu time      0.0000: real time      0.0000
 Broyden mixing: mesh for mixing (old mesh)
   NGX = 65   NGY = 65   NGZ = 65
  (NGX  =196   NGY  =196   NGZ  =196)
  gives a total of 274625 points

 initial charge density was supplied:
 charge density of overlapping atoms calculated
 number of electron      12.0000000 magnetization       2.0000000
 keeping initial charge density in first step


--------------------------------------------------------------------------------------------------------


 Maximum index for non-local projection operator           66
 Maximum index for augmentation-charges            0 (set IRDMAX)


--------------------------------------------------------------------------------------------------------


 First call to EWALD:  gamma=   0.089
 Maximum number of real-space cells 3x 3x 3
 Maximum number of reciprocal cells 3x 3x 3

    FEWALD:  cpu time      0.0014: real time      0.0014


--------------------------------------- Ionic step        1  -------------------------------------------




--------------------------------------- Iteration      1(   1)  ---------------------------------------


    POTLOK:  cpu time      0.2587: real time      0.2616
    SETDIJ:  cpu time      0.1808: real time      0.1813
     EDDAV:  cpu time      0.6304: real time      0.6317
       DOS:  cpu time      0.0012: real time      0.0011
    --------------------------------------------
      LOOP:  cpu time      1.0711: real time      1.0757

 eigenvalue-minimisations  :   160
 total energy-change (2. order) : 0.8249045E+02  (-0.2170903E+03)
 number of electron      12.0000000 magnetization       2.0000000
 augmentation part       12.0000000 magnetization       2.0000000

 Free energy of the ion-electron system (eV)
  ---------------------------------------------------
  alpha Z        PSCENC =         0.06947723
  Ewald energy   TEWEN  =       269.18847645
  -Hartree energ DENC   =      -996.38106836
  -exchange      EXHF   =         0.00000000
  -V(xc)+E(xc)   XCENC  =        54.58144425
  PAW double counting   =       692.81204765     -696.39983308
  entropy T*S    EENTRO =        -0.13767519
  eigenvalues    EBANDS =      -105.76881100
  atomic energy  EATOM  =       864.52639207
  Solvation  Ediel_sol  =         0.00000000
  ---------------------------------------------------
  free energy    TOTEN  =        82.49045001 eV

  energy without entropy =       82.62812520  energy(sigma->0) =       82.55928761


--------------------------------------------------------------------------------------------------------




--------------------------------------- Iteration      1(   2)  ---------------------------------------


     EDDAV:  cpu time      0.4823: real time      0.4879
       DOS:  cpu time      0.0003: real time      0.0003
    --------------------------------------------
      LOOP:  cpu time      0.4826: real time      0.4882

 eigenvalue-minimisations  :   120
 total energy-change (2. order) :-0.7392492E+02  (-0.7391620E+02)
 number of electron      12.0000000 magnetization       2.0000000
 augmentation part       12.0000000 magnetization       2.0000000

 Free energy of the ion-electron system (eV)
  ---------------------------------------------------
  alpha Z        PSCENC =         0.06947723
  Ewald energy   TEWEN  =       269.18847645
  -Hartree energ DENC   =      -996.38106836
  -exchange      EXHF   =         0.00000000
  -V(xc)+E(xc)   XCENC  =        54.58144425
  PAW double counting   =       692.81204765     -696.39983308
  entropy T*S    EENTRO =        -0.13973010
  eigenvalues    EBANDS =      -179.69167447
  atomic energy  EATOM  =       864.52639207
  Solvation  Ediel_sol  =         0.00000000
  ---------------------------------------------------
  free energy    TOTEN  =         8.56553163 eV

  energy without entropy =        8.70526173  energy(sigma->0) =        8.63539668


--------------------------------------------------------------------------------------------------------




--------------------------------------- Iteration      1(   3)  ---------------------------------------


     EDDAV:  cpu time      0.6141: real time      0.6229
       DOS:  cpu time      0.0003: real time      0.0003
    --------------------------------------------
      LOOP:  cpu time      0.6144: real time      0.6232

 eigenvalue-minimisations  :   160
 total energy-change (2. order) :-0.1735077E+02  (-0.1621608E+02)
 number of electron      12.0000000 magnetization       2.0000000
 augmentation part       12.0000000 magnetization       2.0000000

 Free energy of the ion-electron system (eV)
  ---------------------------------------------------
  alpha Z        PSCENC =         0.06947723
  Ewald energy   TEWEN  =       269.18847645
  -Hartree energ DENC   =      -996.38106836
  -exchange      EXHF   =         0.00000000
  -V(xc)+E(xc)   XCENC  =        54.58144425
  PAW double counting   =       692.81204765     -696.39983308
  entropy T*S    EENTRO =        -0.00033682
  eigenvalues    EBANDS =      -197.18184104
  atomic energy  EATOM  =       864.52639207
  Solvation  Ediel_sol  =         0.00000000
  ---------------------------------------------------
  free energy    TOTEN  =        -8.78524166 eV

  energy without entropy =       -8.78490484  energy(sigma->0) =       -8.78507325


--------------------------------------------------------------------------------------------------------




--------------------------------------- Iteration      1(   4)  ---------------------------------------


     EDDAV:  cpu time      0.3485: real time      0.3578
       DOS:  cpu time      0.0002: real time      0.0002
    --------------------------------------------
      LOOP:  cpu time      0.3487: real time      0.3580

 eigenvalue-minimisations  :    80
 total energy-change (2. order) :-0.1896163E+01  (-0.1895997E+01)
 number of electron      12.0000000 magnetization       2.0000000
 augmentation part       12.0000000 magnetization       2.0000000

 Free energy of the ion-electron system (eV)
  ---------------------------------------------------
  alpha Z        PSCENC =         0.06947723
  Ewald energy   TEWEN  =       269.18847645
  -Hartree energ DENC   =      -996.38106836
  -exchange      EXHF   =         0.00000000
  -V(xc)+E(xc)   XCENC  =        54.58144425
  PAW double counting   =       692.81204765     -696.39983308
  entropy T*S    EENTRO =        -0.00000006
  eigenvalues    EBANDS =      -199.07834096
  atomic energy  EATOM  =       864.52639207
  Solvation  Ediel_sol  =         0.00000000
  ---------------------------------------------------
  free energy    TOTEN  =       -10.68140482 eV

  energy without entropy =      -10.68140476  energy(sigma->0) =      -10.68140479


--------------------------------------------------------------------------------------------------------




--------------------------------------- Iteration      1(   5)  ---------------------------------------


     EDDAV:  cpu time      0.3485: real time      0.3580
       DOS:  cpu time      0.0002: real time      0.0002
    CHARGE:  cpu time      0.1959: real time      0.1963
    MIXING:  cpu time      0.0092: real time      0.0093
    --------------------------------------------
      LOOP:  cpu time      0.5538: real time      0.5638

 eigenvalue-minimisations  :    80
 total energy-change (2. order) :-0.3800186E-01  (-0.3800186E-01)
 number of electron      12.0000084 magnetization       2.0000005
 augmentation part        1.1284608 magnetization       0.4828727

 Broyden mixing:
  rms(total) = 0.63843E+00    rms(broyden)= 0.62969E+00
  rms(prec ) = 0.64021E+00
  weight for this iteration     100.00

 Free energy of the ion-electron system (eV)
  ---------------------------------------------------
  alpha Z        PSCENC =         0.06947723
  Ewald energy   TEWEN  =       269.18847645
  -Hartree energ DENC   =      -996.38106836
  -exchange      EXHF   =         0.00000000
  -V(xc)+E(xc)   XCENC  =        54.58144425
  PAW double counting   =       692.81204765     -696.39983308
  entropy T*S    EENTRO =        -0.00000006
  eigenvalues    EBANDS =      -199.11634282
  atomic energy  EATOM  =       864.52639207
  Solvation  Ediel_sol  =         0.00000000
  ---------------------------------------------------
  free energy    TOTEN  =       -10.71940668 eV

  energy without entropy =      -10.71940662  energy(sigma->0) =      -10.71940665


--------------------------------------------------------------------------------------------------------




--------------------------------------- Iteration      1(   6)  ---------------------------------------


    POTLOK:  cpu time      0.2494: real time      0.2581
    SETDIJ:  cpu time      0.1792: real time      0.1796
     EDDAV:  cpu time      0.3520: real time      0.3527
       DOS:  cpu time      0.0002: real time      0.0002
    CHARGE:  cpu time      0.1874: real time      0.1877
    MIXING:  cpu time      0.0081: real time      0.0081
    --------------------------------------------
      LOOP:  cpu time      0.9763: real time      0.9865

 eigenvalue-minimisations  :    80
 total energy-change (2. order) : 0.2961842E+00  (-0.1117987E+00)
 number of electron      12.0000083 magnetization       2.0000009
 augmentation part        1.1181227 magnetization       0.4984851

 Broyden mixing:
  rms(total) = 0.30208E+00    rms(broyden)= 0.30051E+00
  rms(prec ) = 0.30601E+00
  weight for this iteration     100.00

 eigenvalues of (default mixing * dielectric matrix)
  average eigenvalue GAMMA=   0.7626
  0.7626

 Free energy of the ion-electron system (eV)
  ---------------------------------------------------
  alpha Z        PSCENC =         0.06947723
  Ewald energy   TEWEN  =       269.18847645
  -Hartree energ DENC   =      -999.09253125
  -exchange      EXHF   =         0.00000000
  -V(xc)+E(xc)   XCENC  =        55.35566163
  PAW double counting   =       760.79303716     -764.10225560
  entropy T*S    EENTRO =        -0.00000000
  eigenvalues    EBANDS =      -197.16148019
  atomic energy  EATOM  =       864.52639207
  Solvation  Ediel_sol  =         0.00000000
  ---------------------------------------------------
  free energy    TOTEN  =       -10.42322251 eV

  energy without entropy =      -10.42322251  energy(sigma->0) =      -10.42322251


--------------------------------------------------------------------------------------------------------




--------------------------------------- Iteration      1(   7)  ---------------------------------------


    POTLOK:  cpu time      0.2474: real time      0.2563
    SETDIJ:  cpu time      0.1794: real time      0.1798
     EDDAV:  cpu time      0.4852: real time      0.4861
       DOS:  cpu time      0.0002: real time      0.0001
    CHARGE:  cpu time      0.1869: real time      0.1872
    MIXING:  cpu time      0.0080: real time      0.0080
    --------------------------------------------
      LOOP:  cpu time      1.1070: real time      1.1175

 eigenvalue-minimisations  :   120
 total energy-change (2. order) :-0.3791467E+00  (-0.1815034E-01)
 number of electron      12.0000082 magnetization       2.0000016
 augmentation part        1.1103745 magnetization       0.4899695

 Broyden mixing:
  rms(total) = 0.15131E+00    rms(broyden)= 0.15124E+00
  rms(prec ) = 0.15443E+00
  weight for this iteration     100.00

 eigenvalues of (default mixing * dielectric matrix)
  average eigenvalue GAMMA=   1.1923
  1.6739  0.7107

 Free energy of the ion-electron system (eV)
  ---------------------------------------------------
  alpha Z        PSCENC =         0.06947723
  Ewald energy   TEWEN  =       269.18847645
  -Hartree energ DENC   =     -1000.60061234
  -exchange      EXHF   =         0.00000000
  -V(xc)+E(xc)   XCENC  =        55.10365624
  PAW double counting   =       798.32615826     -801.65695827
  entropy T*S    EENTRO =        -0.00000000
  eigenvalues    EBANDS =      -195.75895884
  atomic energy  EATOM  =       864.52639207
  Solvation  Ediel_sol  =         0.00000000
  ---------------------------------------------------
  free energy    TOTEN  =       -10.80236922 eV

  energy without entropy =      -10.80236922  energy(sigma->0) =      -10.80236922


--------------------------------------------------------------------------------------------------------




--------------------------------------- Iteration      1(   8)  ---------------------------------------


    POTLOK:  cpu time      0.2480: real time      0.2572
    SETDIJ:  cpu time      0.1793: real time      0.1797
     EDDAV:  cpu time      0.5533: real time      0.5543
       DOS:  cpu time      0.0004: real time      0.0004
    CHARGE:  cpu time      0.1868: real time      0.1871
    MIXING:  cpu time      0.0082: real time      0.0082
    --------------------------------------------
      LOOP:  cpu time      1.1760: real time      1.1869

 eigenvalue-minimisations  :   140
 total energy-change (2. order) :-0.6072082E-02  (-0.6619996E-02)
 number of electron      12.0000081 magnetization       2.0000019
 augmentation part        1.1048092 magnetization       0.4911314

 Broyden mixing:
  rms(total) = 0.42575E-01    rms(broyden)= 0.42510E-01
  rms(prec ) = 0.42994E-01
  weight for this iteration     100.00

 eigenvalues of (default mixing * dielectric matrix)
  average eigenvalue GAMMA=   1.1757
  2.0985  0.7742  0.6544

 Free energy of the ion-electron system (eV)
  ---------------------------------------------------
  alpha Z        PSCENC =         0.06947723
  Ewald energy   TEWEN  =       269.18847645
  -Hartree energ DENC   =     -1002.29583203
  -exchange      EXHF   =         0.00000000
  -V(xc)+E(xc)   XCENC  =        55.24939281
  PAW double counting   =       850.85558207     -854.01534735
  entropy T*S    EENTRO =        -0.00000000
  eigenvalues    EBANDS =      -194.38658256
  atomic energy  EATOM  =       864.52639207
  Solvation  Ediel_sol  =         0.00000000
  ---------------------------------------------------
  free energy    TOTEN  =       -10.80844130 eV

  energy without entropy =      -10.80844130  energy(sigma->0) =      -10.80844130


--------------------------------------------------------------------------------------------------------




--------------------------------------- Iteration      1(   9)  ---------------------------------------


    POTLOK:  cpu time      0.2476: real time      0.2566
    SETDIJ:  cpu time      0.1793: real time      0.1797
     EDDAV:  cpu time      0.5621: real time      0.5631
       DOS:  cpu time      0.0011: real time      0.0011
    CHARGE:  cpu time      0.1884: real time      0.1887
    MIXING:  cpu time      0.0088: real time      0.0088
    --------------------------------------------
      LOOP:  cpu time      1.1873: real time      1.1981

 eigenvalue-minimisations  :   140
 total energy-change (2. order) :-0.1202013E-01  (-0.3889966E-03)
 number of electron      12.0000081 magnetization       2.0000024
 augmentation part        1.1050717 magnetization       0.4903933

 Broyden mixing:
  rms(total) = 0.18221E-01    rms(broyden)= 0.18215E-01
  rms(prec ) = 0.18735E-01
  weight for this iteration     100.00

 eigenvalues of (default mixing * dielectric matrix)
  average eigenvalue GAMMA=   1.2637
  2.2193  1.4321  0.7516  0.6518

 Free energy of the ion-electron system (eV)
  ---------------------------------------------------
  alpha Z        PSCENC =         0.06947723
  Ewald energy   TEWEN  =       269.18847645
  -Hartree energ DENC   =     -1002.49366374
  -exchange      EXHF   =         0.00000000
  -V(xc)+E(xc)   XCENC  =        55.25594181
  PAW double counting   =       859.84987037     -862.99110073
  entropy T*S    EENTRO =        -0.00000000
  eigenvalues    EBANDS =      -194.22585489
  atomic energy  EATOM  =       864.52639207
  Solvation  Ediel_sol  =         0.00000000
  ---------------------------------------------------
  free energy    TOTEN  =       -10.82046143 eV

  energy without entropy =      -10.82046143  energy(sigma->0) =      -10.82046143


--------------------------------------------------------------------------------------------------------




--------------------------------------- Iteration      1(  10)  ---------------------------------------


    POTLOK:  cpu time      0.2490: real time      0.2576
    SETDIJ:  cpu time      0.1797: real time      0.1801
     EDDAV:  cpu time      0.4847: real time      0.4856
       DOS:  cpu time      0.0001: real time      0.0001
    CHARGE:  cpu time      0.1866: real time      0.1870
    MIXING:  cpu time      0.0089: real time      0.0089
    --------------------------------------------
      LOOP:  cpu time      1.1089: real time      1.1193

 eigenvalue-minimisations  :   120
 total energy-change (2. order) :-0.1287786E-02  (-0.1022191E-03)
 number of electron      12.0000081 magnetization       2.0000026
 augmentation part        1.1061524 magnetization       0.4906784

 Broyden mixing:
  rms(total) = 0.43419E-02    rms(broyden)= 0.43344E-02
  rms(prec ) = 0.45856E-02
  weight for this iteration     100.00

 eigenvalues of (default mixing * dielectric matrix)
  average eigenvalue GAMMA=   1.2613
  2.3888  1.7439  0.7987  0.6876  0.6876

 Free energy of the ion-electron system (eV)
  ---------------------------------------------------
  alpha Z        PSCENC =         0.06947723
  Ewald energy   TEWEN  =       269.18847645
  -Hartree energ DENC   =     -1002.60454701
  -exchange      EXHF   =         0.00000000
  -V(xc)+E(xc)   XCENC  =        55.25325831
  PAW double counting   =       866.19545704     -869.30170459
  entropy T*S    EENTRO =        -0.00000000
  eigenvalues    EBANDS =      -194.14855871
  atomic energy  EATOM  =       864.52639207
  Solvation  Ediel_sol  =         0.00000000
  ---------------------------------------------------
  free energy    TOTEN  =       -10.82174922 eV

  energy without entropy =      -10.82174922  energy(sigma->0) =      -10.82174922


--------------------------------------------------------------------------------------------------------




--------------------------------------- Iteration      1(  11)  ---------------------------------------


    POTLOK:  cpu time      0.2554: real time      0.2560
    SETDIJ:  cpu time      0.1793: real time      0.1797
     EDDAV:  cpu time      0.5506: real time      0.5516
       DOS:  cpu time      0.0001: real time      0.0001
    CHARGE:  cpu time      0.1867: real time      0.1872
    MIXING:  cpu time      0.0092: real time      0.0092
    --------------------------------------------
      LOOP:  cpu time      1.1814: real time      1.1838

 eigenvalue-minimisations  :   140
 total energy-change (2. order) :-0.1319330E-03  (-0.6581471E-05)
 number of electron      12.0000081 magnetization       2.0000028
 augmentation part        1.1060796 magnetization       0.4905897

 Broyden mixing:
  rms(total) = 0.14990E-02    rms(broyden)= 0.14976E-02
  rms(prec ) = 0.18513E-02
  weight for this iteration     100.00

 eigenvalues of (default mixing * dielectric matrix)
  average eigenvalue GAMMA=   1.2166
  2.4594  1.7803  0.9687  0.7746  0.6801  0.6365

 Free energy of the ion-electron system (eV)
  ---------------------------------------------------
  alpha Z        PSCENC =         0.06947723
  Ewald energy   TEWEN  =       269.18847645
  -Hartree energ DENC   =     -1002.70715126
  -exchange      EXHF   =         0.00000000
  -V(xc)+E(xc)   XCENC  =        55.25679557
  PAW double counting   =       867.18578005     -870.29050677
  entropy T*S    EENTRO =        -0.00000000
  eigenvalues    EBANDS =      -194.05114449
  atomic energy  EATOM  =       864.52639207
  Solvation  Ediel_sol  =         0.00000000
  ---------------------------------------------------
  free energy    TOTEN  =       -10.82188115 eV

  energy without entropy =      -10.82188115  energy(sigma->0) =      -10.82188115


--------------------------------------------------------------------------------------------------------




--------------------------------------- Iteration      1(  12)  ---------------------------------------


    POTLOK:  cpu time      0.2478: real time      0.2568
    SETDIJ:  cpu time      0.1793: real time      0.1797
     EDDAV:  cpu time      0.5506: real time      0.5516
       DOS:  cpu time      0.0002: real time      0.0002
    --------------------------------------------
      LOOP:  cpu time      0.9778: real time      0.9882

 eigenvalue-minimisations  :   140
 total energy-change (2. order) :-0.8279442E-04  (-0.1113737E-05)
 number of electron      12.0000081 magnetization       2.0000028
 augmentation part        1.1060796 magnetization       0.4905897

 Free energy of the ion-electron system (eV)
  ---------------------------------------------------
  alpha Z        PSCENC =         0.06947723
  Ewald energy   TEWEN  =       269.18847645
  -Hartree energ DENC   =     -1002.78732779
  -exchange      EXHF   =         0.00000000
  -V(xc)+E(xc)   XCENC  =        55.25981201
  PAW double counting   =       867.36421113     -870.46808838
  entropy T*S    EENTRO =        -0.00000000
  eigenvalues    EBANDS =      -193.97491666
  atomic energy  EATOM  =       864.52639207
  Solvation  Ediel_sol  =         0.00000000
  ---------------------------------------------------
  free energy    TOTEN  =       -10.82196394 eV

  energy without entropy =      -10.82196394  energy(sigma->0) =      -10.82196394


--------------------------------------------------------------------------------------------------------




 average (electrostatic) potential at core
  the test charge radii are     0.7215
  (the norm of the test charge is              1.0000)
       1 -84.0035       2 -84.0035
 
 
 
 E-fermi :  -6.1579     XC(G=0):  -0.1594     alpha+bet : -0.0187

 val. band max:       -7.1742007895   @ k =   0.0000   0.0000   0.0000
 cond. band min:      -4.8815763432   @ k =   0.0000   0.0000   0.0000
 fundamental gap:      2.2926244463
 Fermi energy:        -6.1579251489

 spin component 1

 k-point     1 :       0.0000    0.0000    0.0000
  band No.  band energies     occupation 
      1     -32.5445      1.00000
      2     -20.9887      1.00000
      3     -13.5162      1.00000
      4     -13.2912      1.00000
      5     -13.2912      1.00000
      6      -7.1742      1.00000
      7      -7.1742      1.00000
      8      -0.3018      0.00000
      9       0.0867      0.00000
     10       0.1803      0.00000
     11       0.1815      0.00000
     12       0.1815      0.00000
     13       0.2998      0.00000
     14       0.3063      0.00000
     15       0.5011      0.00000
     16       0.5251      0.00000
     17       0.5454      0.00000
     18       0.5454      0.00000
     19       0.6087      0.00000
     20       0.6379      0.00000
 Fermi energy:        -6.1579251489

 spin component 2

 k-point     1 :       0.0000    0.0000    0.0000
  band No.  band energies     occupation 
      1     -31.3196      1.00000
      2     -19.1890      1.00000
      3     -12.6258      1.00000
      4     -11.4302      1.00000
      5     -11.4302      1.00000
      6      -4.8816      0.00000
      7      -4.8816      0.00000
      8      -0.2190      0.00000
      9       0.1257      0.00000
     10       0.2096      0.00000
     11       0.2096      0.00000
     12       0.2417      0.00000
     13       0.2969      0.00000
     14       0.3131      0.00000
     15       0.5285      0.00000
     16       0.5730      0.00000
     17       0.5730      0.00000
     18       0.6034      0.00000
     19       0.6133      0.00000
     20       0.6419      0.00000


--------------------------------------------------------------------------------------------------------


 soft charge-density along one line, spin component           1
         0         1         2         3         4         5         6         7         8         9
 total charge-density along one line
 
 soft charge-density along one line, spin component           2
         0         1         2         3         4         5         6         7         8         9
 total charge-density along one line
 
 pseudopotential strength for first ion, spin component:           1
 14.540 -17.879   0.000   0.103   0.000  -0.000  -0.125  -0.000
-17.879  22.019  -0.000  -0.131  -0.000   0.000   0.159   0.000
  0.000  -0.000 -11.492  -0.000  -0.000  14.415   0.000   0.000
  0.103  -0.131  -0.000 -11.437  -0.000   0.000  14.318   0.000
  0.000  -0.000  -0.000  -0.000 -11.492   0.000   0.000  14.415
 -0.000   0.000  14.415   0.000   0.000 -18.044  -0.000  -0.000
 -0.125   0.159   0.000  14.318   0.000  -0.000 -17.881  -0.000
 -0.000   0.000   0.000   0.000  14.415  -0.000  -0.000 -18.044
 pseudopotential strength for first ion, spin component:           2
 14.014 -17.199   0.000   0.110   0.000  -0.000  -0.137  -0.000
-17.199  21.142  -0.000  -0.140  -0.000   0.000   0.175   0.000
  0.000  -0.000 -10.868   0.000  -0.000  13.536  -0.000   0.000
  0.110  -0.140   0.000 -11.262  -0.000  -0.000  14.081   0.000
  0.000  -0.000  -0.000  -0.000 -10.868   0.000   0.000  13.536
 -0.000   0.000  13.536  -0.000   0.000 -16.801   0.000  -0.000
 -0.137   0.175  -0.000  14.081   0.000   0.000 -17.559  -0.000
 -0.000   0.000   0.000   0.000  13.536  -0.000  -0.000 -16.801
 total augmentation occupancy for first ion, spin component:           1
  1.728   0.009   0.000  -0.479   0.000   0.000  -0.216   0.000
  0.009   0.163   0.000  -0.536   0.000  -0.000  -0.158  -0.000
  0.000   0.000   1.837   0.000   0.000   0.144  -0.000   0.000
 -0.479  -0.536   0.000   2.594   0.000  -0.000   0.630   0.000
  0.000   0.000   0.000   0.000   1.837  -0.000   0.000   0.144
  0.000   0.000   0.144  -0.000  -0.000   0.032   0.000   0.000
 -0.216  -0.158   0.000   0.630   0.000  -0.000   0.183   0.000
  0.000  -0.000   0.000   0.000   0.144   0.000   0.000   0.032
 total augmentation occupancy for first ion, spin component:           2
 -0.082  -0.039  -0.000   0.011  -0.000   0.000   0.011   0.000
 -0.039   0.008   0.000   0.006   0.000   0.000   0.003   0.000
  0.000   0.000   0.394   0.000   0.000  -0.076   0.000   0.000
  0.011   0.006   0.000  -0.035   0.000  -0.000  -0.018  -0.000
  0.000   0.000   0.000   0.000   0.394  -0.000   0.000  -0.076
 -0.000  -0.000  -0.076  -0.000  -0.000  -0.001   0.000   0.000
  0.011   0.003   0.000  -0.018   0.000  -0.000  -0.006  -0.000
 -0.000   0.000   0.000  -0.000  -0.076   0.000   0.000  -0.001


------------------------ aborting loop because EDIFF is reached ----------------------------------------





 total charge

# of ion       s       p       d       tot
------------------------------------------
    1        1.549   3.311   0.000   4.860
    2        1.549   3.311   0.000   4.860
--------------------------------------------------
tot          3.098   6.622   0.000   9.721



 magnetization (x)

# of ion       s       p       d       tot
------------------------------------------
    1        0.010   0.814   0.000   0.825
    2        0.010   0.814   0.000   0.825
--------------------------------------------------
tot          0.021   1.628   0.000   1.649
 
    CHARGE:  cpu time      0.2051: real time      0.2056
    FORLOC:  cpu time      0.0031: real time      0.0031
    FORNL :  cpu time      0.1153: real time      0.1155
    STRESS:  cpu time      0.3466: real time      0.3472
    FORCOR:  cpu time      0.2360: real time      0.2365
    FORHAR:  cpu time      0.0263: real time      0.0264
    MIXING:  cpu time      0.0092: real time      0.0092
    OFIELD:  cpu time      0.0001: real time      0.0001

  FORCE on cell =-STRESS in cart. coord.  units (eV):
  Direction    XX          YY          ZZ          XY          YZ          ZX
  --------------------------------------------------------------------------------------
  Alpha Z     0.06948     0.06948     0.06948
  Ewald     -49.13483   -49.13483   367.45812    -0.00000     0.00000     0.00000
  Hartree   269.07320   269.07320   464.88829    -0.00000    -0.00000    -0.00000
  E(xc)     -59.02879   -59.02879   -57.88200     0.00000     0.00000     0.00000
  Local    -403.08866  -403.08866  -972.33781     0.00000     0.00000    -0.00000
  n-local   -53.06148   -53.06148   -49.60044     0.00000     0.00000     0.00000
  augment    12.67267    12.67267    10.15360     0.00000     0.00000    -0.00000
  Kinetic   272.48717   272.48717   232.96613    -0.00000     0.00000     0.00000
  Fock        0.00000     0.00000     0.00000     0.00000     0.00000     0.00000
  -------------------------------------------------------------------------------------
  Total     -10.01124   -10.01124    -4.28463     0.00000    -0.00000     0.00000
  in kB      -2.00497    -2.00497    -0.85809     0.00000    -0.00000     0.00000
  external pressure =       -1.62 kB  Pullay stress =        0.00 kB


 VOLUME and BASIS-vectors are now :
 -----------------------------------------------------------------------------
  energy-cutoff  :      400.00
  volume of cell :     8000.00
      direct lattice vectors                 reciprocal lattice vectors
    20.000000000  0.000000000  0.000000000     0.050000000  0.000000000  0.000000000
     0.000000000 20.000000000  0.000000000     0.000000000  0.050000000  0.000000000
     0.000000000  0.000000000 20.000000000     0.000000000  0.000000000  0.050000000

  length of vectors
    20.000000000 20.000000000 20.000000000     0.050000000  0.050000000  0.050000000


 FORCES acting on ions
    electron-ion (+dipol)            ewald-force                    non-local-force                 convergence-correction
 -----------------------------------------------------------------------------------------------
   0.101E-11 0.364E-12 -.283E+03   0.865E-17 0.180E-17 0.334E+03   -.165E-23 0.620E-24 -.565E+02   -.132E-12 0.827E-13 0.678E-02
   0.100E-11 0.364E-12 0.283E+03   -.121E-16 -.140E-16 -.334E+03   0.827E-24 -.258E-23 0.565E+02   -.122E-12 0.699E-13 -.678E-02
 -----------------------------------------------------------------------------------------------
   0.201E-11 0.727E-12 0.219E-11   -.347E-17 -.122E-16 0.000E+00   -.827E-24 -.196E-23 0.711E-14   -.253E-12 0.153E-12 -.184E-12
 
 
 POSITION                                       TOTAL-FORCE (eV/Angst)
 -----------------------------------------------------------------------------------
     10.00000     10.00000     10.62298        -0.000000     -0.000000     -6.302481
     10.00000     10.00000      9.37702         0.000000      0.000000      6.302481
 -----------------------------------------------------------------------------------
    total drift:                                0.000000      0.000000      0.000000


--------------------------------------------------------------------------------------------------------



  FREE ENERGIE OF THE ION-ELECTRON SYSTEM (eV)
  ---------------------------------------------------
  free  energy   TOTEN  =       -10.82196394 eV

  energy  without entropy=      -10.82196394  energy(sigma->0) =      -10.82196394
 


--------------------------------------------------------------------------------------------------------


    POTLOK:  cpu time      0.4282: real time      0.4291


--------------------------------------------------------------------------------------------------------


 stress matrix after NEB project (eV)
    -10.01124      0.00000      0.00000
      0.00000    -10.01124      0.00000
      0.00000     -0.00000     -4.28463
  FORCES: max atom, RMS     6.302481    6.302481
  FORCE total and by dimension    8.913054    6.302481
  Stress total and by dimension   14.792162   10.011244


--------------------------------------------------------------------------------------------------------


    WAVPRE:  cpu time      0.0186: real time      0.0200
    FEWALD:  cpu time      0.0004: real time      0.0006

 real space projection operators:
  total allocation   :         33.50 KBytes
  max/ min on nodes  :          9.75          6.25

    ORTHCH:  cpu time      0.0425: real time      0.0427
     LOOP+:  cpu time     12.3985: real time     12.5161


--------------------------------------- Ionic step        2  -------------------------------------------




--------------------------------------- Iteration      2(   1)  ---------------------------------------


    POTLOK:  cpu time      0.2477: real time      0.2486
    SETDIJ:  cpu time      0.1794: real time      0.1798
     EDDAV:  cpu time      0.3498: real time      0.3504
       DOS:  cpu time      0.0002: real time      0.0002
    CHARGE:  cpu time      0.1860: real time      0.1864
    MIXING:  cpu time      0.0103: real time      0.0103
    --------------------------------------------
      LOOP:  cpu time      0.9734: real time      0.9757

 eigenvalue-minimisations  :    80
 total energy-change (2. order) : 0.2542740E+01  (-0.1082379E+02)
 number of electron      12.0000070 magnetization       2.0000031
 augmentation part        1.2797562 magnetization       0.4945523

 Broyden mixing:
  rms(total) = 0.41511E+00    rms(broyden)= 0.41027E+00
  rms(prec ) = 0.41690E+00
  weight for this iteration     100.00

 Free energy of the ion-electron system (eV)
  ---------------------------------------------------
  alpha Z        PSCENC =         0.06947723
  Ewald energy   TEWEN  =       340.49836743
  -Hartree energ DENC   =     -1052.04096237
  -exchange      EXHF   =         0.00000000
  -V(xc)+E(xc)   XCENC  =        56.24726827
  PAW double counting   =       867.31579369     -870.42002661
  entropy T*S    EENTRO =        -0.00000000
  eigenvalues    EBANDS =      -214.47545084
  atomic energy  EATOM  =       864.52639207
  Solvation  Ediel_sol  =         0.00000000
  ---------------------------------------------------
  free energy    TOTEN  =        -8.27914112 eV

  energy without entropy =       -8.27914112  energy(sigma->0) =       -8.27914112


--------------------------------------------------------------------------------------------------------




--------------------------------------- Iteration      2(   2)  ---------------------------------------


    POTLOK:  cpu time      0.2475: real time      0.2573
    SETDIJ:  cpu time      0.1805: real time      0.1809
     EDDAV:  cpu time      0.4190: real time      0.4199
       DOS:  cpu time      0.0002: real time      0.0003
    CHARGE:  cpu time      0.1899: real time      0.1903
    MIXING:  cpu time      0.0080: real time      0.0080
    --------------------------------------------
      LOOP:  cpu time      1.0450: real time      1.0567

 eigenvalue-minimisations  :   100
 total energy-change (2. order) :-0.2930558E-01  (-0.1690660E+00)
 number of electron      12.0000069 magnetization       2.0000032
 augmentation part        1.2885906 magnetization       0.4901462

 Broyden mixing:
  rms(total) = 0.20931E+00    rms(broyden)= 0.20881E+00
  rms(prec ) = 0.21464E+00
  weight for this iteration     100.00

 eigenvalues of (default mixing * dielectric matrix)
  average eigenvalue GAMMA=   0.7516
  0.7516

 Free energy of the ion-electron system (eV)
  ---------------------------------------------------
  alpha Z        PSCENC =         0.06947723
  Ewald energy   TEWEN  =       340.49836743
  -Hartree energ DENC   =     -1057.67911962
  -exchange      EXHF   =         0.00000000
  -V(xc)+E(xc)   XCENC  =        56.62553859
  PAW double counting   =       953.47886452     -956.86726226
  entropy T*S    EENTRO =        -0.00000000
  eigenvalues    EBANDS =      -208.96070468
  atomic energy  EATOM  =       864.52639207
  Solvation  Ediel_sol  =         0.00000000
  ---------------------------------------------------
  free energy    TOTEN  =        -8.30844671 eV

  energy without entropy =       -8.30844671  energy(sigma->0) =       -8.30844671


--------------------------------------------------------------------------------------------------------




--------------------------------------- Iteration      2(   3)  ---------------------------------------


    POTLOK:  cpu time      0.2493: real time      0.2573
    SETDIJ:  cpu time      0.1794: real time      0.1798
     EDDAV:  cpu time      0.3494: real time      0.3501
       DOS:  cpu time      0.0002: real time      0.0002
    CHARGE:  cpu time      0.1865: real time      0.1869
    MIXING:  cpu time      0.0081: real time      0.0080
    --------------------------------------------
      LOOP:  cpu time      0.9728: real time      0.9823

 eigenvalue-minimisations  :    80
 total energy-change (2. order) :-0.3062632E-01  (-0.1279069E-01)
 number of electron      12.0000068 magnetization       2.0000033
 augmentation part        1.2751628 magnetization       0.4850285

 Broyden mixing:
  rms(total) = 0.91577E-01    rms(broyden)= 0.91491E-01
  rms(prec ) = 0.93964E-01
  weight for this iteration     100.00

 eigenvalues of (default mixing * dielectric matrix)
  average eigenvalue GAMMA=   1.1667
  1.6161  0.7173

 Free energy of the ion-electron system (eV)
  ---------------------------------------------------
  alpha Z        PSCENC =         0.06947723
  Ewald energy   TEWEN  =       340.49836743
  -Hartree energ DENC   =     -1061.00888600
  -exchange      EXHF   =         0.00000000
  -V(xc)+E(xc)   XCENC  =        56.76331847
  PAW double counting   =       993.61181086     -997.16937723
  entropy T*S    EENTRO =        -0.00000000
  eigenvalues    EBANDS =      -205.63017587
  atomic energy  EATOM  =       864.52639207
  Solvation  Ediel_sol  =         0.00000000
  ---------------------------------------------------
  free energy    TOTEN  =        -8.33907303 eV

  energy without entropy =       -8.33907303  energy(sigma->0) =       -8.33907303


--------------------------------------------------------------------------------------------------------




--------------------------------------- Iteration      2(   4)  ---------------------------------------


    POTLOK:  cpu time      0.2463: real time      0.2558
    SETDIJ:  cpu time      0.1794: real time      0.1798
     EDDAV:  cpu time      0.5478: real time      0.5489
       DOS:  cpu time      0.0001: real time      0.0001
    CHARGE:  cpu time      0.1857: real time      0.1861
    MIXING:  cpu time      0.0082: real time      0.0082
    --------------------------------------------
      LOOP:  cpu time      1.1675: real time      1.1790

 eigenvalue-minimisations  :   140
 total energy-change (2. order) : 0.4251604E-02  (-0.6571042E-02)
 number of electron      12.0000067 magnetization       2.0000033
 augmentation part        1.2649456 magnetization       0.4800151

 Broyden mixing:
  rms(total) = 0.31526E-01    rms(broyden)= 0.31385E-01
  rms(prec ) = 0.32685E-01
  weight for this iteration     100.00

 eigenvalues of (default mixing * dielectric matrix)
  average eigenvalue GAMMA=   1.0941
  1.7042  0.8846  0.6935

 Free energy of the ion-electron system (eV)
  ---------------------------------------------------
  alpha Z        PSCENC =         0.06947723
  Ewald energy   TEWEN  =       340.49836743
  -Hartree energ DENC   =     -1063.47297746
  -exchange      EXHF   =         0.00000000
  -V(xc)+E(xc)   XCENC  =        56.89566001
  PAW double counting   =      1044.86698035    -1048.61379185
  entropy T*S    EENTRO =        -0.00000000
  eigenvalues    EBANDS =      -203.10492921
  atomic energy  EATOM  =       864.52639207
  Solvation  Ediel_sol  =         0.00000000
  ---------------------------------------------------
  free energy    TOTEN  =        -8.33482143 eV

  energy without entropy =       -8.33482143  energy(sigma->0) =       -8.33482143


--------------------------------------------------------------------------------------------------------




--------------------------------------- Iteration      2(   5)  ---------------------------------------


    POTLOK:  cpu time      0.2473: real time      0.2561
    SETDIJ:  cpu time      0.1794: real time      0.1798
     EDDAV:  cpu time      0.3496: real time      0.3503
       DOS:  cpu time      0.0002: real time      0.0002
    CHARGE:  cpu time      0.1861: real time      0.1865
    MIXING:  cpu time      0.0084: real time      0.0084
    --------------------------------------------
      LOOP:  cpu time      0.9710: real time      0.9814

 eigenvalue-minimisations  :    80
 total energy-change (2. order) :-0.4994751E-02  (-0.3935870E-03)
 number of electron      12.0000068 magnetization       2.0000034
 augmentation part        1.2668660 magnetization       0.4807984

 Broyden mixing:
  rms(total) = 0.17184E-01    rms(broyden)= 0.17183E-01
  rms(prec ) = 0.17756E-01
  weight for this iteration     100.00

 eigenvalues of (default mixing * dielectric matrix)
  average eigenvalue GAMMA=   1.2047
  1.9092  1.4265  0.6734  0.8099

 Free energy of the ion-electron system (eV)
  ---------------------------------------------------
  alpha Z        PSCENC =         0.06947723
  Ewald energy   TEWEN  =       340.49836743
  -Hartree energ DENC   =     -1062.69359942
  -exchange      EXHF   =         0.00000000
  -V(xc)+E(xc)   XCENC  =        56.84925405
  PAW double counting   =      1052.99190500    -1056.74228615
  entropy T*S    EENTRO =        -0.00000000
  eigenvalues    EBANDS =      -203.83932639
  atomic energy  EATOM  =       864.52639207
  Solvation  Ediel_sol  =         0.00000000
  ---------------------------------------------------
  free energy    TOTEN  =        -8.33981618 eV

  energy without entropy =       -8.33981618  energy(sigma->0) =       -8.33981618


--------------------------------------------------------------------------------------------------------




--------------------------------------- Iteration      2(   6)  ---------------------------------------


    POTLOK:  cpu time      0.2466: real time      0.2561
    SETDIJ:  cpu time      0.1796: real time      0.1800
     EDDAV:  cpu time      0.3491: real time      0.3499
       DOS:  cpu time      0.0001: real time      0.0001
    CHARGE:  cpu time      0.1861: real time      0.1865
    MIXING:  cpu time      0.0087: real time      0.0087
    --------------------------------------------
      LOOP:  cpu time      0.9703: real time      0.9814

 eigenvalue-minimisations  :    80
 total energy-change (2. order) :-0.1917405E-03  (-0.9318882E-04)
 number of electron      12.0000068 magnetization       2.0000034
 augmentation part        1.2674050 magnetization       0.4813025

 Broyden mixing:
  rms(total) = 0.54113E-02    rms(broyden)= 0.54106E-02
  rms(prec ) = 0.56369E-02
  weight for this iteration     100.00

 eigenvalues of (default mixing * dielectric matrix)
  average eigenvalue GAMMA=   1.2452
  2.4824  1.2963  1.0895  0.7211  0.6367

 Free energy of the ion-electron system (eV)
  ---------------------------------------------------
  alpha Z        PSCENC =         0.06947723
  Ewald energy   TEWEN  =       340.49836743
  -Hartree energ DENC   =     -1062.23736240
  -exchange      EXHF   =         0.00000000
  -V(xc)+E(xc)   XCENC  =        56.82741132
  PAW double counting   =      1067.68138107    -1071.46373951
  entropy T*S    EENTRO =        -0.00000000
  eigenvalues    EBANDS =      -204.24193514
  atomic energy  EATOM  =       864.52639207
  Solvation  Ediel_sol  =         0.00000000
  ---------------------------------------------------
  free energy    TOTEN  =        -8.34000792 eV

  energy without entropy =       -8.34000792  energy(sigma->0) =       -8.34000792


--------------------------------------------------------------------------------------------------------




--------------------------------------- Iteration      2(   7)  ---------------------------------------


    POTLOK:  cpu time      0.2461: real time      0.2556
    SETDIJ:  cpu time      0.1793: real time      0.1797
     EDDAV:  cpu time      0.4153: real time      0.4161
       DOS:  cpu time      0.0001: real time      0.0001
    CHARGE:  cpu time      0.1859: real time      0.1864
    MIXING:  cpu time      0.0091: real time      0.0091
    --------------------------------------------
      LOOP:  cpu time      1.0359: real time      1.0470

 eigenvalue-minimisations  :   100
 total energy-change (2. order) :-0.1219047E-02  (-0.1122153E-04)
 number of electron      12.0000068 magnetization       2.0000034
 augmentation part        1.2671593 magnetization       0.4812121

 Broyden mixing:
  rms(total) = 0.12885E-02    rms(broyden)= 0.12852E-02
  rms(prec ) = 0.16767E-02
  weight for this iteration     100.00

 eigenvalues of (default mixing * dielectric matrix)
  average eigenvalue GAMMA=   1.1855
  2.5405  1.2898  1.1566  0.8076  0.6912  0.6270

 Free energy of the ion-electron system (eV)
  ---------------------------------------------------
  alpha Z        PSCENC =         0.06947723
  Ewald energy   TEWEN  =       340.49836743
  -Hartree energ DENC   =     -1062.26268537
  -exchange      EXHF   =         0.00000000
  -V(xc)+E(xc)   XCENC  =        56.82894085
  PAW double counting   =      1070.93200113    -1074.72113037
  entropy T*S    EENTRO =        -0.00000000
  eigenvalues    EBANDS =      -204.21258993
  atomic energy  EATOM  =       864.52639207
  Solvation  Ediel_sol  =         0.00000000
  ---------------------------------------------------
  free energy    TOTEN  =        -8.34122697 eV

  energy without entropy =       -8.34122697  energy(sigma->0) =       -8.34122697


--------------------------------------------------------------------------------------------------------




--------------------------------------- Iteration      2(   8)  ---------------------------------------


    POTLOK:  cpu time      0.2470: real time      0.2565
    SETDIJ:  cpu time      0.1795: real time      0.1799
     EDDAV:  cpu time      0.4158: real time      0.4167
       DOS:  cpu time      0.0001: real time      0.0001
    CHARGE:  cpu time      0.1863: real time      0.1869
    MIXING:  cpu time      0.0093: real time      0.0093
    --------------------------------------------
      LOOP:  cpu time      1.0380: real time      1.0494

 eigenvalue-minimisations  :   100
 total energy-change (2. order) :-0.3705949E-03  (-0.1304248E-05)
 number of electron      12.0000068 magnetization       2.0000035
 augmentation part        1.2671714 magnetization       0.4812083

 Broyden mixing:
  rms(total) = 0.81034E-03    rms(broyden)= 0.81011E-03
  rms(prec ) = 0.11907E-02
  weight for this iteration     100.00

 eigenvalues of (default mixing * dielectric matrix)
  average eigenvalue GAMMA=   1.2402
  2.5445  1.7054  1.1792  1.1792  0.7656  0.6815  0.6262

 Free energy of the ion-electron system (eV)
  ---------------------------------------------------
  alpha Z        PSCENC =         0.06947723
  Ewald energy   TEWEN  =       340.49836743
  -Hartree energ DENC   =     -1062.25246867
  -exchange      EXHF   =         0.00000000
  -V(xc)+E(xc)   XCENC  =        56.82814852
  PAW double counting   =      1071.08450892    -1074.87295302
  entropy T*S    EENTRO =        -0.00000000
  eigenvalues    EBANDS =      -204.22307004
  atomic energy  EATOM  =       864.52639207
  Solvation  Ediel_sol  =         0.00000000
  ---------------------------------------------------
  free energy    TOTEN  =        -8.34159756 eV

  energy without entropy =       -8.34159756  energy(sigma->0) =       -8.34159756


--------------------------------------------------------------------------------------------------------




--------------------------------------- Iteration      2(   9)  ---------------------------------------


    POTLOK:  cpu time      0.2473: real time      0.2566
    SETDIJ:  cpu time      0.1795: real time      0.1799
     EDDAV:  cpu time      0.5487: real time      0.5502
       DOS:  cpu time      0.0001: real time      0.0001
    CHARGE:  cpu time      0.1855: real time      0.1859
    MIXING:  cpu time      0.0099: real time      0.0099
    --------------------------------------------
      LOOP:  cpu time      1.1710: real time      1.1826

 eigenvalue-minimisations  :   140
 total energy-change (2. order) :-0.5291986E-03  (-0.4605226E-05)
 number of electron      12.0000068 magnetization       2.0000035
 augmentation part        1.2671825 magnetization       0.4811984

 Broyden mixing:
  rms(total) = 0.36005E-03    rms(broyden)= 0.35977E-03
  rms(prec ) = 0.63521E-03
  weight for this iteration     100.00

 eigenvalues of (default mixing * dielectric matrix)
  average eigenvalue GAMMA=   1.3323
  2.7543  2.5346  1.3536  1.0555  0.9386  0.7293  0.6257  0.6662

 Free energy of the ion-electron system (eV)
  ---------------------------------------------------
  alpha Z        PSCENC =         0.06947723
  Ewald energy   TEWEN  =       340.49836743
  -Hartree energ DENC   =     -1062.24279908
  -exchange      EXHF   =         0.00000000
  -V(xc)+E(xc)   XCENC  =        56.82737149
  PAW double counting   =      1071.08383222    -1074.87057214
  entropy T*S    EENTRO =        -0.00000000
  eigenvalues    EBANDS =      -204.23419598
  atomic energy  EATOM  =       864.52639207
  Solvation  Ediel_sol  =         0.00000000
  ---------------------------------------------------
  free energy    TOTEN  =        -8.34212676 eV

  energy without entropy =       -8.34212676  energy(sigma->0) =       -8.34212676


--------------------------------------------------------------------------------------------------------




--------------------------------------- Iteration      2(  10)  ---------------------------------------


    POTLOK:  cpu time      0.2470: real time      0.2550
    SETDIJ:  cpu time      0.1795: real time      0.1800
     EDDAV:  cpu time      0.4810: real time      0.4823
       DOS:  cpu time      0.0002: real time      0.0002
    CHARGE:  cpu time      0.1859: real time      0.1864
    MIXING:  cpu time      0.0102: real time      0.0102
    --------------------------------------------
      LOOP:  cpu time      1.1040: real time      1.1141

 eigenvalue-minimisations  :   120
 total energy-change (2. order) :-0.2197426E-03  (-0.1383826E-05)
 number of electron      12.0000068 magnetization       2.0000035
 augmentation part        1.2671551 magnetization       0.4811836

 Broyden mixing:
  rms(total) = 0.23022E-03    rms(broyden)= 0.23004E-03
  rms(prec ) = 0.42746E-03
  weight for this iteration     100.00

 eigenvalues of (default mixing * dielectric matrix)
  average eigenvalue GAMMA=   1.3423
  3.0782  2.5424  1.4248  1.1121  1.1121  0.8213  0.7100  0.6536  0.6258

 Free energy of the ion-electron system (eV)
  ---------------------------------------------------
  alpha Z        PSCENC =         0.06947723
  Ewald energy   TEWEN  =       340.49836743
  -Hartree energ DENC   =     -1062.24542987
  -exchange      EXHF   =         0.00000000
  -V(xc)+E(xc)   XCENC  =        56.82737159
  PAW double counting   =      1071.06877635    -1074.85522194
  entropy T*S    EENTRO =        -0.00000000
  eigenvalues    EBANDS =      -204.23207937
  atomic energy  EATOM  =       864.52639207
  Solvation  Ediel_sol  =         0.00000000
  ---------------------------------------------------
  free energy    TOTEN  =        -8.34234650 eV

  energy without entropy =       -8.34234650  energy(sigma->0) =       -8.34234650


--------------------------------------------------------------------------------------------------------




--------------------------------------- Iteration      2(  11)  ---------------------------------------


    POTLOK:  cpu time      0.2548: real time      0.2555
    SETDIJ:  cpu time      0.1795: real time      0.1799
     EDDAV:  cpu time      0.4154: real time      0.4165
       DOS:  cpu time      0.0001: real time      0.0001
    CHARGE:  cpu time      0.1860: real time      0.1865
    MIXING:  cpu time      0.0107: real time      0.0108
    --------------------------------------------
      LOOP:  cpu time      1.0466: real time      1.0494

 eigenvalue-minimisations  :   100
 total energy-change (2. order) :-0.1843941E-03  (-0.1071001E-05)
 number of electron      12.0000068 magnetization       2.0000036
 augmentation part        1.2671524 magnetization       0.4811824

 Broyden mixing:
  rms(total) = 0.14282E-03    rms(broyden)= 0.14255E-03
  rms(prec ) = 0.26377E-03
  weight for this iteration     100.00

 eigenvalues of (default mixing * dielectric matrix)
  average eigenvalue GAMMA=   1.4581
  3.8625  2.5337  2.0025  1.3693  1.0422  1.0422  0.7683  0.6975  0.6372  0.6255

 Free energy of the ion-electron system (eV)
  ---------------------------------------------------
  alpha Z        PSCENC =         0.06947723
  Ewald energy   TEWEN  =       340.49836743
  -Hartree energ DENC   =     -1062.24147104
  -exchange      EXHF   =         0.00000000
  -V(xc)+E(xc)   XCENC  =        56.82694700
  PAW double counting   =      1071.03517957    -1074.82175300
  entropy T*S    EENTRO =        -0.00000000
  eigenvalues    EBANDS =      -204.23567015
  atomic energy  EATOM  =       864.52639207
  Solvation  Ediel_sol  =         0.00000000
  ---------------------------------------------------
  free energy    TOTEN  =        -8.34253090 eV

  energy without entropy =       -8.34253090  energy(sigma->0) =       -8.34253090


--------------------------------------------------------------------------------------------------------




--------------------------------------- Iteration      2(  12)  ---------------------------------------


    POTLOK:  cpu time      0.2471: real time      0.2564
    SETDIJ:  cpu time      0.1795: real time      0.1799
     EDDAV:  cpu time      0.4964: real time      0.4976
       DOS:  cpu time      0.0002: real time      0.0004
    CHARGE:  cpu time      0.1919: real time      0.1923
    MIXING:  cpu time      0.0119: real time      0.0119
    --------------------------------------------
      LOOP:  cpu time      1.1270: real time      1.1385

 eigenvalue-minimisations  :   120
 total energy-change (2. order) :-0.1216159E-03  (-0.7535174E-06)
 number of electron      12.0000068 magnetization       2.0000036
 augmentation part        1.2671490 magnetization       0.4811813

 Broyden mixing:
  rms(total) = 0.83062E-04    rms(broyden)= 0.82958E-04
  rms(prec ) = 0.15452E-03
  weight for this iteration     100.00

 eigenvalues of (default mixing * dielectric matrix)
  average eigenvalue GAMMA=   1.5363
  4.8125  2.4836  2.4836  1.4018  1.0883  1.0883  0.8635  0.7315  0.6882  0.6238
  0.6342

 Free energy of the ion-electron system (eV)
  ---------------------------------------------------
  alpha Z        PSCENC =         0.06947723
  Ewald energy   TEWEN  =       340.49836743
  -Hartree energ DENC   =     -1062.23939349
  -exchange      EXHF   =         0.00000000
  -V(xc)+E(xc)   XCENC  =        56.82666397
  PAW double counting   =      1071.02122674    -1074.80791108
  entropy T*S    EENTRO =        -0.00000000
  eigenvalues    EBANDS =      -204.23747539
  atomic energy  EATOM  =       864.52639207
  Solvation  Ediel_sol  =         0.00000000
  ---------------------------------------------------
  free energy    TOTEN  =        -8.34265251 eV

  energy without entropy =       -8.34265251  energy(sigma->0) =       -8.34265251


--------------------------------------------------------------------------------------------------------




--------------------------------------- Iteration      2(  13)  ---------------------------------------


    POTLOK:  cpu time      0.2483: real time      0.2572
    SETDIJ:  cpu time      0.1795: real time      0.1799
     EDDAV:  cpu time      0.4850: real time      0.4863
       DOS:  cpu time      0.0001: real time      0.0002
    --------------------------------------------
      LOOP:  cpu time      0.9129: real time      0.9235

 eigenvalue-minimisations  :   120
 total energy-change (2. order) :-0.5198336E-04  (-0.1359855E-06)
 number of electron      12.0000068 magnetization       2.0000036
 augmentation part        1.2671490 magnetization       0.4811813

 Free energy of the ion-electron system (eV)
  ---------------------------------------------------
  alpha Z        PSCENC =         0.06947723
  Ewald energy   TEWEN  =       340.49836743
  -Hartree energ DENC   =     -1062.24102506
  -exchange      EXHF   =         0.00000000
  -V(xc)+E(xc)   XCENC  =        56.82659553
  PAW double counting   =      1071.01872765    -1074.80547979
  entropy T*S    EENTRO =        -0.00000000
[...]
  -exchange      EXHF   =         0.00000000
  -V(xc)+E(xc)   XCENC  =        55.41439985
  PAW double counting   =       880.77767051     -883.88614600
  entropy T*S    EENTRO =        -0.00000000
  eigenvalues    EBANDS =      -194.98575288
  atomic energy  EATOM  =       864.52639207
  Solvation  Ediel_sol  =         0.00000000
  ---------------------------------------------------
  free energy    TOTEN  =       -10.89369982 eV

  energy without entropy =      -10.89369982  energy(sigma->0) =      -10.89369982


--------------------------------------------------------------------------------------------------------




--------------------------------------- Iteration      5(   2)  ---------------------------------------


    POTLOK:  cpu time      0.2488: real time      0.2577
    SETDIJ:  cpu time      0.1794: real time      0.1798
     EDDAV:  cpu time      0.4148: real time      0.4156
       DOS:  cpu time      0.0001: real time      0.0001
    CHARGE:  cpu time      0.1862: real time      0.1866
    MIXING:  cpu time      0.0079: real time      0.0079
    --------------------------------------------
      LOOP:  cpu time      1.0373: real time      1.0477

 eigenvalue-minimisations  :   100
 total energy-change (2. order) :-0.2073772E-04  (-0.2030147E-04)
 number of electron      12.0000086 magnetization       2.0000038
 augmentation part        1.1181297 magnetization       0.4905331

 Broyden mixing:
  rms(total) = 0.19062E-02    rms(broyden)= 0.18945E-02
  rms(prec ) = 0.19427E-02
  weight for this iteration     100.00

 eigenvalues of (default mixing * dielectric matrix)
  average eigenvalue GAMMA=   0.7658
  0.7658

 Free energy of the ion-electron system (eV)
  ---------------------------------------------------
  alpha Z        PSCENC =         0.06947723
  Ewald energy   TEWEN  =       276.45951121
  -Hartree energ DENC   =     -1009.33659410
  -exchange      EXHF   =         0.00000000
  -V(xc)+E(xc)   XCENC  =        55.41839777
  PAW double counting   =       881.43926467     -884.54880401
  entropy T*S    EENTRO =        -0.00000000
  eigenvalues    EBANDS =      -194.92136539
  atomic energy  EATOM  =       864.52639207
  Solvation  Ediel_sol  =         0.00000000
  ---------------------------------------------------
  free energy    TOTEN  =       -10.89372055 eV

  energy without entropy =      -10.89372055  energy(sigma->0) =      -10.89372055


--------------------------------------------------------------------------------------------------------




--------------------------------------- Iteration      5(   3)  ---------------------------------------


    POTLOK:  cpu time      0.2489: real time      0.2569
    SETDIJ:  cpu time      0.1793: real time      0.1797
     EDDAV:  cpu time      0.5470: real time      0.5480
       DOS:  cpu time      0.0001: real time      0.0001
    CHARGE:  cpu time      0.1866: real time      0.1870
    MIXING:  cpu time      0.0079: real time      0.0079
    --------------------------------------------
      LOOP:  cpu time      1.1699: real time      1.1797

 eigenvalue-minimisations  :   140
 total energy-change (2. order) :-0.1640563E-04  (-0.1098409E-05)
 number of electron      12.0000086 magnetization       2.0000038
 augmentation part        1.1180231 magnetization       0.4905009

 Broyden mixing:
  rms(total) = 0.81803E-03    rms(broyden)= 0.81663E-03
  rms(prec ) = 0.84132E-03
  weight for this iteration     100.00

 eigenvalues of (default mixing * dielectric matrix)
  average eigenvalue GAMMA=   1.0450
  1.3698  0.7203

 Free energy of the ion-electron system (eV)
  ---------------------------------------------------
  alpha Z        PSCENC =         0.06947723
  Ewald energy   TEWEN  =       276.45951121
  -Hartree energ DENC   =     -1009.36400428
  -exchange      EXHF   =         0.00000000
  -V(xc)+E(xc)   XCENC  =        55.42001545
  PAW double counting   =       881.74103348     -884.85137581
  entropy T*S    EENTRO =        -0.00000000
  eigenvalues    EBANDS =      -194.89478630
  atomic energy  EATOM  =       864.52639207
  Solvation  Ediel_sol  =         0.00000000
  ---------------------------------------------------
  free energy    TOTEN  =       -10.89373696 eV

  energy without entropy =      -10.89373696  energy(sigma->0) =      -10.89373696


--------------------------------------------------------------------------------------------------------




--------------------------------------- Iteration      5(   4)  ---------------------------------------


    POTLOK:  cpu time      0.2485: real time      0.2559
    SETDIJ:  cpu time      0.1795: real time      0.1799
     EDDAV:  cpu time      0.4796: real time      0.4805
       DOS:  cpu time      0.0002: real time      0.0002
    CHARGE:  cpu time      0.1864: real time      0.1867
    MIXING:  cpu time      0.0082: real time      0.0082
    --------------------------------------------
      LOOP:  cpu time      1.1023: real time      1.1114

 eigenvalue-minimisations  :   120
 total energy-change (2. order) :-0.1377259E-04  (-0.3812129E-06)
 number of electron      12.0000086 magnetization       2.0000038
 augmentation part        1.1179545 magnetization       0.4904684

 Broyden mixing:
  rms(total) = 0.29154E-03    rms(broyden)= 0.29048E-03
  rms(prec ) = 0.30478E-03
  weight for this iteration     100.00

 eigenvalues of (default mixing * dielectric matrix)
  average eigenvalue GAMMA=   1.0735
  1.6906  0.8537  0.6761

 Free energy of the ion-electron system (eV)
  ---------------------------------------------------
  alpha Z        PSCENC =         0.06947723
  Ewald energy   TEWEN  =       276.45951121
  -Hartree energ DENC   =     -1009.38261306
  -exchange      EXHF   =         0.00000000
  -V(xc)+E(xc)   XCENC  =        55.42100639
  PAW double counting   =       882.08265370     -885.19366782
  entropy T*S    EENTRO =        -0.00000000
  eigenvalues    EBANDS =      -194.87651045
  atomic energy  EATOM  =       864.52639207
  Solvation  Ediel_sol  =         0.00000000
  ---------------------------------------------------
  free energy    TOTEN  =       -10.89375073 eV

  energy without entropy =      -10.89375073  energy(sigma->0) =      -10.89375073


--------------------------------------------------------------------------------------------------------




--------------------------------------- Iteration      5(   5)  ---------------------------------------


    POTLOK:  cpu time      0.2484: real time      0.2557
    SETDIJ:  cpu time      0.1794: real time      0.1798
     EDDAV:  cpu time      0.5475: real time      0.5485
       DOS:  cpu time      0.0002: real time      0.0002
    --------------------------------------------
      LOOP:  cpu time      0.9756: real time      0.9842

 eigenvalue-minimisations  :   140
 total energy-change (2. order) :-0.6538897E-05  (-0.1590223E-07)
 number of electron      12.0000086 magnetization       2.0000038
 augmentation part        1.1179545 magnetization       0.4904684

 Free energy of the ion-electron system (eV)
  ---------------------------------------------------
  alpha Z        PSCENC =         0.06947723
  Ewald energy   TEWEN  =       276.45951121
  -Hartree energ DENC   =     -1009.37960152
  -exchange      EXHF   =         0.00000000
  -V(xc)+E(xc)   XCENC  =        55.42085327
  PAW double counting   =       882.17564014     -885.28667910
  entropy T*S    EENTRO =        -0.00000000
  eigenvalues    EBANDS =      -194.87935057
  atomic energy  EATOM  =       864.52639207
  Solvation  Ediel_sol  =         0.00000000
  ---------------------------------------------------
  free energy    TOTEN  =       -10.89375727 eV

  energy without entropy =      -10.89375727  energy(sigma->0) =      -10.89375727


--------------------------------------------------------------------------------------------------------




 average (electrostatic) potential at core
  the test charge radii are     0.7215
  (the norm of the test charge is              1.0000)
       1 -84.0114       2 -84.0114
 
 
 
 E-fermi :  -6.0669     XC(G=0):  -0.1138     alpha+bet : -0.0187

 val. band max:       -6.9913526391   @ k =   0.0000   0.0000   0.0000
 cond. band min:      -4.6947313930   @ k =   0.0000   0.0000   0.0000
 fundamental gap:      2.2966212462
 Fermi energy:        -6.0668634314

 spin component 1

 k-point     1 :       0.0000    0.0000    0.0000
  band No.  band energies     occupation 
      1     -32.9938      1.00000
      2     -20.7992      1.00000
      3     -13.5496      1.00000
      4     -13.4598      1.00000
      5     -13.4598      1.00000
      6      -6.9914      1.00000
      7      -6.9914      1.00000
      8      -0.2114      0.00000
      9       0.0964      0.00000
     10       0.2143      0.00000
     11       0.3091      0.00000
     12       0.3091      0.00000
     13       0.3292      0.00000
     14       0.3298      0.00000
     15       0.4991      0.00000
     16       0.5583      0.00000
     17       0.6239      0.00000
     18       0.6239      0.00000
     19       0.6775      0.00000
     20       0.7241      0.00000
 Fermi energy:        -6.0668634314

 spin component 2

 k-point     1 :       0.0000    0.0000    0.0000
  band No.  band energies     occupation 
      1     -31.7858      1.00000
      2     -19.0022      1.00000
      3     -12.6447      1.00000
      4     -11.6009      1.00000
      5     -11.6009      1.00000
      6      -4.6947      0.00000
      7      -4.6947      0.00000
      8      -0.1252      0.00000
      9       0.1472      0.00000
     10       0.2678      0.00000
     11       0.3334      0.00000
     12       0.3334      0.00000
     13       0.3428      0.00000
     14       0.3448      0.00000
     15       0.5619      0.00000
     16       0.5808      0.00000
     17       0.6606      0.00000
     18       0.6606      0.00000
     19       0.6932      0.00000
     20       0.7344      0.00000


--------------------------------------------------------------------------------------------------------


 soft charge-density along one line, spin component           1
         0         1         2         3         4         5         6         7         8         9
 total charge-density along one line
 
 soft charge-density along one line, spin component           2
         0         1         2         3         4         5         6         7         8         9
 total charge-density along one line
 
 pseudopotential strength for first ion, spin component:           1
 14.538 -17.876   0.000   0.111   0.000  -0.000  -0.134  -0.000
-17.876  22.016  -0.000  -0.140  -0.000   0.000   0.170   0.000
  0.000  -0.000 -11.488  -0.000  -0.000  14.409   0.000   0.000
  0.111  -0.140  -0.000 -11.443  -0.000   0.000  14.325   0.000
  0.000  -0.000  -0.000  -0.000 -11.488   0.000   0.000  14.409
 -0.000   0.000  14.409   0.000   0.000 -18.035  -0.000  -0.000
 -0.134   0.170   0.000  14.325   0.000  -0.000 -17.889  -0.000
 -0.000   0.000   0.000   0.000  14.409  -0.000  -0.000 -18.035
 pseudopotential strength for first ion, spin component:           2
 14.012 -17.196   0.000   0.118   0.000  -0.000  -0.146  -0.000
-17.196  21.138  -0.000  -0.150  -0.000   0.000   0.187   0.000
  0.000  -0.000 -10.863  -0.000  -0.000  13.529   0.000   0.000
  0.118  -0.150  -0.000 -11.268  -0.000   0.000  14.088   0.000
  0.000  -0.000  -0.000  -0.000 -10.863   0.000   0.000  13.529
 -0.000   0.000  13.529   0.000   0.000 -16.790  -0.000  -0.000
 -0.146   0.187   0.000  14.088   0.000  -0.000 -17.567  -0.000
 -0.000   0.000   0.000   0.000  13.529  -0.000  -0.000 -16.790
 total augmentation occupancy for first ion, spin component:           1
  1.723   0.019   0.000  -0.560   0.000  -0.000  -0.258  -0.000
  0.019   0.179   0.000  -0.573  -0.000   0.000  -0.170   0.000
  0.000   0.000   1.861  -0.000   0.000   0.155   0.000  -0.000
 -0.560  -0.573  -0.000   2.701  -0.000  -0.000   0.673  -0.000
  0.000  -0.000   0.000  -0.000   1.861   0.000   0.000   0.155
 -0.000   0.000   0.155  -0.000   0.000   0.037   0.000   0.000
 -0.258  -0.170  -0.000   0.673   0.000   0.000   0.201  -0.000
 -0.000   0.000  -0.000  -0.000   0.155   0.000   0.000   0.037
 total augmentation occupancy for first ion, spin component:           2
 -0.081  -0.039  -0.000   0.013  -0.000   0.000   0.012   0.000
 -0.039   0.008  -0.000   0.007   0.000  -0.000   0.004   0.000
 -0.000  -0.000   0.381  -0.000   0.000  -0.081   0.000   0.000
  0.013   0.007  -0.000  -0.036   0.000  -0.000  -0.018   0.000
 -0.000   0.000   0.000   0.000   0.381  -0.000   0.000  -0.081
  0.000   0.000  -0.081  -0.000  -0.000  -0.001   0.000   0.000
  0.012   0.004  -0.000  -0.018  -0.000   0.000  -0.006  -0.000
  0.000   0.000   0.000   0.000  -0.081   0.000  -0.000  -0.001


------------------------ aborting loop because EDIFF is reached ----------------------------------------





 total charge

# of ion       s       p       d       tot
------------------------------------------
    1        1.544   3.345   0.000   4.889
    2        1.544   3.345   0.000   4.889
--------------------------------------------------
tot          3.088   6.691   0.000   9.778



 magnetization (x)

# of ion       s       p       d       tot
------------------------------------------
    1        0.010   0.810   0.000   0.820
    2        0.010   0.810   0.000   0.820
--------------------------------------------------
tot          0.021   1.619   0.000   1.640
 
    CHARGE:  cpu time      0.2051: real time      0.2056
    FORLOC:  cpu time      0.0031: real time      0.0031
    FORNL :  cpu time      0.1154: real time      0.1157
    STRESS:  cpu time      0.3468: real time      0.3475
    FORCOR:  cpu time      0.2353: real time      0.2358
    FORHAR:  cpu time      0.0261: real time      0.0261
    MIXING:  cpu time      0.0083: real time      0.0083
    OFIELD:  cpu time      0.0001: real time      0.0000

  FORCE on cell =-STRESS in cart. coord.  units (eV):
  Direction    XX          YY          ZZ          XY          YZ          ZX
  --------------------------------------------------------------------------------------
  Alpha Z     0.06948     0.06948     0.06948
  Ewald     -49.13123   -49.13123   374.72192     0.00000    -0.00000     0.00000
  Hartree   271.25501   271.25501   466.86465    -0.00000    -0.00000    -0.00000
  E(xc)     -59.19196   -59.19196   -58.02413     0.00000     0.00000     0.00000
  Local    -405.67358  -405.67358  -980.04718     0.00000    -0.00000    -0.00000
  n-local   -54.57513   -54.57513   -58.06636    -0.00000    -0.00000    -0.00000
  augment    12.75499    12.75499    10.21853     0.00000     0.00000     0.00000
  Kinetic   273.09119   273.09119   234.01291     0.00000     0.00000     0.00000
  Fock        0.00000     0.00000     0.00000     0.00000     0.00000     0.00000
  -------------------------------------------------------------------------------------
  Total     -11.40122   -11.40122   -10.25017     0.00000    -0.00000     0.00000
  in kB      -2.28335    -2.28335    -2.05282     0.00000    -0.00000     0.00000
  external pressure =       -2.21 kB  Pullay stress =        0.00 kB


 VOLUME and BASIS-vectors are now :
 -----------------------------------------------------------------------------
  energy-cutoff  :      400.00
  volume of cell :     8000.00
      direct lattice vectors                 reciprocal lattice vectors
    20.000000000  0.000000000  0.000000000     0.050000000  0.000000000  0.000000000
     0.000000000 20.000000000  0.000000000     0.000000000  0.050000000  0.000000000
     0.000000000  0.000000000 20.000000000     0.000000000  0.000000000  0.050000000

  length of vectors
    20.000000000 20.000000000 20.000000000     0.050000000  0.050000000  0.050000000


 FORCES acting on ions
    electron-ion (+dipol)            ewald-force                    non-local-force                 convergence-correction
 -----------------------------------------------------------------------------------------------
   0.101E-11 0.148E-11 -.292E+03   0.723E-17 0.201E-16 0.345E+03   -.646E-26 -.162E-25 -.534E+02   -.175E-12 0.143E-12 -.835E-03
   0.101E-11 0.171E-12 0.292E+03   -.107E-16 -.323E-16 -.345E+03   -.166E-25 -.404E-26 0.534E+02   -.156E-12 -.445E-13 0.835E-03
 -----------------------------------------------------------------------------------------------
   0.203E-11 0.165E-11 0.486E-11   -.351E-17 -.122E-16 0.000E+00   -.230E-25 -.202E-25 0.000E+00   -.330E-12 0.983E-13 -.444E-13
 
 
 POSITION                                       TOTAL-FORCE (eV/Angst)
 -----------------------------------------------------------------------------------
     10.00000     10.00000     10.61227        -0.000000      0.000000     -0.007916
     10.00000     10.00000      9.38773         0.000000     -0.000000      0.007916
 -----------------------------------------------------------------------------------
    total drift:                                0.000000      0.000000      0.000000


--------------------------------------------------------------------------------------------------------



  FREE ENERGIE OF THE ION-ELECTRON SYSTEM (eV)
  ---------------------------------------------------
  free  energy   TOTEN  =       -10.89375727 eV

  energy  without entropy=      -10.89375727  energy(sigma->0) =      -10.89375727
 
 d Force = 0.8020630E-03[ 0.176E-04, 0.159E-02]  d Energy = 0.8790958E-03-0.770E-04
 d Force =-0.7664268E+00[-0.768E+00,-0.765E+00]  d Ewald  =-0.7664256E+00-0.127E-05


--------------------------------------------------------------------------------------------------------


    POTLOK:  cpu time      0.4279: real time      0.4289


--------------------------------------------------------------------------------------------------------


 stress matrix after NEB project (eV)
    -11.40122      0.00000      0.00000
      0.00000    -11.40122      0.00000
     -0.00000     -0.00000    -10.25017
  FORCES: max atom, RMS     0.007916    0.007916
  FORCE total and by dimension    0.011195    0.007916
  Stress total and by dimension   19.106066   11.401223


--------------------------------------------------------------------------------------------------------


  
 reached required accuracy - stopping structural energy minimisation
     LOOP+:  cpu time      6.9385: real time      6.9923
    4ORBIT:  cpu time      0.0000: real time      0.0000



 total charge

# of ion       s       p       d       tot
------------------------------------------
    1        1.544   3.345   0.000   4.889
    2        1.544   3.345   0.000   4.889
--------------------------------------------------
tot          3.088   6.691   0.000   9.778



 magnetization (x)

# of ion       s       p       d       tot
------------------------------------------
    1        0.010   0.810   0.000   0.820
    2        0.010   0.810   0.000   0.820
--------------------------------------------------
tot          0.021   1.619   0.000   1.640
 

 total amount of memory used by VASP MPI-rank0    79489. kBytes
=======================================================================

   base      :      30000. kBytes
   nonlr-proj:         18. kBytes
   fftplans  :      13916. kBytes
   grid      :      33225. kBytes
   one-center:          6. kBytes
   wavefun   :       2324. kBytes
 
  
  
 General timing and accounting informations for this job:
 ========================================================
  
                  Total CPU time used (sec):       54.699
                            User time (sec):       51.053
                          System time (sec):        3.647
                         Elapsed time (sec):       55.616
  
                   Maximum memory used (kb):      237032.
                   Average memory used (kb):          N/A
  
                          Minor page faults:        92490
                          Major page faults:            0
                 Voluntary context switches:         1886
