PROCAR new format
# of k-points:    1         # of bands:   20         # of ions:    2

 k-point     1 :    0.00000000 0.00000000 0.00000000     weight = 1.00000000

band     1 # energy  -32.99380958 # occ.  1.00000000
 
ion      s      p      d    tot
    1  0.380  0.101  0.000  0.482
    2  0.380  0.101  0.000  0.482
tot    0.761  0.203  0.000  0.963
 
band     2 # energy  -20.79923815 # occ.  1.00000000
 
ion      s      p      d    tot
    1  0.356  0.043  0.000  0.400
    2  0.356  0.043  0.000  0.400
tot    0.713  0.087  0.000  0.800
 
band     3 # energy  -13.54962847 # occ.  1.00000000
 
ion      s      p      d    tot
    1  0.040  0.389  0.000  0.430
    2  0.040  0.389  0.000  0.430
tot    0.081  0.779  0.000  0.859
 
band     4 # energy  -13.45977475 # occ.  1.00000000
 
ion      s      p      d    tot
    1  0.000  0.379  0.000  0.379
    2  0.000  0.379  0.000  0.379
tot    0.000  0.758  0.000  0.758
 
band     5 # energy  -13.45977475 # occ.  1.00000000
 
ion      s      p      d    tot
    1  0.000  0.379  0.000  0.379
    2  0.000  0.379  0.000  0.379
tot    0.000  0.758  0.000  0.758
 
band     6 # energy   -6.99135264 # occ.  1.00000000
 
ion      s      p      d    tot
    1  0.000  0.393  0.000  0.393
    2  0.000  0.393  0.000  0.393
tot    0.000  0.785  0.000  0.785
 
band     7 # energy   -6.99135264 # occ.  1.00000000
 
ion      s      p      d    tot
    1  0.000  0.393  0.000  0.393
    2  0.000  0.393  0.000  0.393
tot    0.000  0.785  0.000  0.785
 
band     8 # energy   -0.21136795 # occ.  0.00000000
 
ion      s      p      d    tot
    1  0.004  0.002  0.000  0.006
    2  0.004  0.002  0.000  0.006
tot    0.008  0.005  0.000  0.012
 
band     9 # energy    0.09642349 # occ.  0.00000000
 
ion      s      p      d    tot
    1  0.002  0.001  0.000  0.003
    2  0.002  0.001  0.000  0.003
tot    0.004  0.002  0.000  0.006
 
band    10 # energy    0.21431591 # occ.  0.00000000
 
ion      s      p      d    tot
    1  0.004  0.003  0.000  0.007
    2  0.004  0.003  0.000  0.007
tot    0.007  0.006  0.000  0.013
 
band    11 # energy    0.30908787 # occ.  0.00000000
 
ion      s      p      d    tot
    1  0.000  0.001  0.000  0.001
    2  0.000  0.001  0.000  0.001
tot    0.000  0.001  0.000  0.001
 
band    12 # energy    0.30908787 # occ.  0.00000000
 
ion      s      p      d    tot
    1  0.000  0.001  0.000  0.001
    2  0.000  0.001  0.000  0.001
tot    0.000  0.001  0.000  0.001
 
band    13 # energy    0.32923868 # occ.  0.00000000
 
ion      s      p      d    tot
    1  0.000  0.000  0.000  0.000
    2  0.000  0.000  0.000  0.000
tot    0.000  0.000  0.000  0.000
 
band    14 # energy    0.32984073 # occ.  0.00000000
 
ion      s      p      d    tot
    1  0.000  0.000  0.000  0.000
    2  0.000  0.000  0.000  0.000
tot    0.000  0.000  0.000  0.000
 
band    15 # energy    0.49914923 # occ.  0.00000000
 
ion      s      p      d    tot
    1  0.004  0.003  0.000  0.007
    2  0.004  0.003  0.000  0.007
tot    0.007  0.007  0.000  0.014
 
band    16 # energy    0.55832782 # occ.  0.00000000
 
ion      s      p      d    tot
    1  0.001  0.001  0.000  0.002
    2  0.001  0.001  0.000  0.002
tot    0.002  0.001  0.000  0.003
 
band    17 # energy    0.62391125 # occ.  0.00000000
 
ion      s      p      d    tot
    1  0.000  0.001  0.000  0.001
    2  0.000  0.001  0.000  0.001
tot    0.000  0.003  0.000  0.003
 
band    18 # energy    0.62391125 # occ.  0.00000000
 
ion      s      p      d    tot
    1  0.000  0.001  0.000  0.001
    2  0.000  0.001  0.000  0.001
tot    0.000  0.003  0.000  0.003
 
band    19 # energy    0.67752169 # occ.  0.00000000
 
ion      s      p      d    tot
    1  0.000  0.000  0.000  0.000
    2  0.000  0.000  0.000  0.000
tot    0.000  0.000  0.000  0.000
 
band    20 # energy    0.72406771 # occ.  0.00000000
 
ion      s      p      d    tot
    1  0.000  0.000  0.000  0.000
    2  0.000  0.000  0.000  0.000
tot    0.000  0.000  0.000  0.000
 
# of k-points:    1         # of bands:   20         # of ions:    2

 k-point     1 :    0.00000000 0.00000000 0.00000000     weight = 1.00000000

band     1 # energy  -31.78580273 # occ.  1.00000000
 
ion      s      p      d    tot
    1  0.373  0.112  0.000  0.485
    2  0.373  0.112  0.000  0.485
tot    0.746  0.225  0.000  0.970
 
band     2 # energy  -19.00215291 # occ.  1.00000000
 
ion      s      p      d    tot
    1  0.349  0.048  0.000  0.396
    2  0.349  0.048  0.000  0.396
tot    0.697  0.096  0.000  0.793
 
band     3 # energy  -12.64469425 # occ.  1.00000000
 
ion      s      p      d    tot
    1  0.045  0.377  0.000  0.422
    2  0.045  0.377  0.000  0.422
tot    0.090  0.754  0.000  0.845
 
band     4 # energy  -11.60088485 # occ.  1.00000000
 
ion      s      p      d    tot
    1  0.000  0.365  0.000  0.365
    2  0.000  0.365  0.000  0.365
tot    0.000  0.731  0.000  0.731
 
band     5 # energy  -11.60088485 # occ.  1.00000000
 
ion      s      p      d    tot
    1  0.000  0.365  0.000  0.365
    2  0.000  0.365  0.000  0.365
tot    0.000  0.731  0.000  0.731
 
band     6 # energy   -4.69473139 # occ.  0.00000000
 
ion      s      p      d    tot
    1  0.000  0.377  0.000  0.377
    2  0.000  0.377  0.000  0.377
tot    0.000  0.754  0.000  0.754
 
band     7 # energy   -4.69473139 # occ.  0.00000000
 
ion      s      p      d    tot
    1  0.000  0.377  0.000  0.377
    2  0.000  0.377  0.000  0.377
tot    0.000  0.754  0.000  0.754
 
band     8 # energy   -0.12520833 # occ.  0.00000000
 
ion      s      p      d    tot
    1  0.002  0.002  0.000  0.004
    2  0.002  0.002  0.000  0.004
tot    0.005  0.003  0.000  0.008
 
band     9 # energy    0.14715559 # occ.  0.00000000
 
ion      s      p      d    tot
    1  0.002  0.001  0.000  0.004
    2  0.002  0.001  0.000  0.004
tot    0.005  0.003  0.000  0.008
 
band    10 # energy    0.26776420 # occ.  0.00000000
 
ion      s      p      d    tot
    1  0.001  0.001  0.000  0.002
    2  0.001  0.001  0.000  0.002
tot    0.003  0.001  0.000  0.004
 
band    11 # energy    0.33339351 # occ.  0.00000000
 
ion      s      p      d    tot
    1  0.000  0.000  0.000  0.000
    2  0.000  0.000  0.000  0.000
tot    0.000  0.001  0.000  0.001
 
band    12 # energy    0.33339351 # occ.  0.00000000
 
ion      s      p      d    tot
    1  0.000  0.000  0.000  0.000
    2  0.000  0.000  0.000  0.000
tot    0.000  0.001  0.000  0.001
 
band    13 # energy    0.34278060 # occ.  0.00000000
 
ion      s      p      d    tot
    1  0.000  0.000  0.000  0.000
    2  0.000  0.000  0.000  0.000
tot    0.000  0.000  0.000  0.000
 
band    14 # energy    0.34483601 # occ.  0.00000000
 
ion      s      p      d    tot
    1  0.000  0.000  0.000  0.000
    2  0.000  0.000  0.000  0.000
tot    0.000  0.000  0.000  0.000
 
band    15 # energy    0.56185100 # occ.  0.00000000
 
ion      s      p      d    tot
    1  0.002  0.001  0.000  0.003
    2  0.002  0.001  0.000  0.003
tot    0.005  0.002  0.000  0.007
 
band    16 # energy    0.58077937 # occ.  0.00000000
 
ion      s      p      d    tot
    1  0.001  0.001  0.000  0.002
    2  0.001  0.001  0.000  0.002
tot    0.003  0.001  0.000  0.004
 
band    17 # energy    0.66055826 # occ.  0.00000000
 
ion      s      p      d    tot
    1  0.000  0.001  0.000  0.001
    2  0.000  0.001  0.000  0.001
tot    0.000  0.002  0.000  0.002
 
band    18 # energy    0.66055826 # occ.  0.00000000
 
ion      s      p      d    tot
    1  0.000  0.001  0.000  0.001
    2  0.000  0.001  0.000  0.001
tot    0.000  0.002  0.000  0.002
 
band    19 # energy    0.69324183 # occ.  0.00000000
 
ion      s      p      d    tot
    1  0.000  0.000  0.000  0.000
    2  0.000  0.000  0.000  0.000
tot    0.000  0.000  0.000  0.000
 
band    20 # energy    0.73442669 # occ.  0.00000000
 
ion      s      p      d    tot
    1  0.000  0.000  0.000  0.000
    2  0.000  0.000  0.000  0.000
tot    0.000  0.000  0.000  0.000
 
