<?xml version="1.0" encoding="ISO-8859-1"?>
<modeling>
 <generator>
  <i name="program" type="string">vasp </i>
  <i name="version" type="string">6.4.3  </i>
  <i name="subversion" type="string">19Mar24 (build Jul 09 2024 15:45:28) complex                          parallel </i>
  <i name="platform" type="string">LinuxIFC </i>
  <i name="date" type="string">2024 10 29 </i>
  <i name="time" type="string">11:58:04 </i>
 </generator>
 <incar>
  <i type="string" name="PREC">Normal</i>
  <i type="string" name="ALGO">Normal</i>
  <i type="int" name="NSIM">    10</i>
  <i type="int" name="ISPIN">     2</i>
  <i type="int" name="NELM">    30</i>
  <i type="int" name="NELMIN">     5</i>
  <i type="int" name="IBRION">     2</i>
  <i name="EDIFF">      0.00010000</i>
  <i name="EDIFFG">     -0.10000000</i>
  <i type="int" name="NSW">     5</i>
  <i name="ENCUT">    400.00000000</i>
  <i name="POTIM">      0.15000000</i>
  <v name="MAGMOM">      1.00000000      1.00000000</v>
  <i type="logical" name="LREAL"> T  </i>
  <i type="int" name="ISMEAR">     0</i>
  <i type="logical" name="KGAMMA"> T  </i>
  <i type="logical" name="LWAVE"> F  </i>
  <i type="logical" name="LCHARG"> F  </i>
  <i type="int" name="LORBIT">    10</i>
  <i type="logical" name="LASPH"> T  </i>
  <i type="string" name="GGA">PE</i>
  <i type="logical" name="LDIPOL"> F  </i>
 </incar>
 <primitive_cell>
  <structure name="primitive_cell" >
   <crystal>
    <varray name="basis" >
     <v>      20.00000000       0.00000000       0.00000000 </v>
     <v>       0.00000000      20.00000000       0.00000000 </v>
     <v>       0.00000000       0.00000000      20.00000000 </v>
    </varray>
    <i name="volume">   8000.00000000 </i>
    <varray name="rec_basis" >
     <v>       0.05000000       0.00000000       0.00000000 </v>
     <v>       0.00000000       0.05000000       0.00000000 </v>
     <v>       0.00000000       0.00000000       0.05000000 </v>
    </varray>
   </crystal>
   <varray name="positions" >
    <v>       0.50000000       0.50000000       0.53114890 </v>
    <v>       0.50000000       0.50000000       0.46885110 </v>
   </varray>
  </structure>
  <varray name="primitive_index" >
   <v type="int" >        1 </v>
   <v type="int" >        2 </v>
  </varray>
 </primitive_cell>
 <kpoints>
  <generation param="Monkhorst-Pack">
   <v type="int" name="divisions">       1        1        1 </v>
   <v name="usershift">      0.00000000       0.00000000       0.00000000 </v>
   <v name="genvec1">      1.00000000       0.00000000       0.00000000 </v>
   <v name="genvec2">      0.00000000       1.00000000       0.00000000 </v>
   <v name="genvec3">      0.00000000       0.00000000       1.00000000 </v>
   <v name="shift">      0.00000000       0.00000000       0.00000000 </v>
  </generation>
  <varray name="kpointlist" >
   <v>       0.00000000       0.00000000       0.00000000 </v>
  </varray>
  <varray name="weights" >
   <v>       1.00000000 </v>
  </varray>
 </kpoints>
 <parameters>
  <separator name="general" >
   <i type="string" name="SYSTEM">unknown system</i>
   <i type="logical" name="LCOMPAT"> F  </i>
  </separator>
  <separator name="electronic" >
   <i type="string" name="PREC">normal</i>
   <i name="ENMAX">    400.00000000</i>
   <i name="ENAUG">    605.39200000</i>
   <i name="EDIFF">      0.00010000</i>
   <i type="int" name="IALGO">    38</i>
   <i type="int" name="IWAVPR">    11</i>
   <i type="int" name="NBANDS">    20</i>
   <i type="int" name="NBANDSLOW">    -1</i>
   <i type="int" name="NBANDSHIGH">    -1</i>
   <i name="NELECT">     12.00000000</i>
   <i type="int" name="TURBO">     0</i>
   <i type="int" name="IRESTART">     0</i>
   <i type="int" name="NREBOOT">     0</i>
   <i type="int" name="NMIN">     0</i>
   <i name="EREF">      0.00000000</i>
   <separator name="electronic smearing" >
    <i type="int" name="ISMEAR">     0</i>
    <i name="SIGMA">      0.20000000</i>
    <i name="KSPACING">      0.50000000</i>
    <i type="logical" name="KGAMMA"> T  </i>
    <i type="logical" name="KBLOWUP"> T  </i>
   </separator>
   <separator name="electronic projectors" >
    <i type="logical" name="LREAL"> T  </i>
    <v name="ROPT">      0.00000000</v>
    <i type="int" name="LMAXPAW">  -100</i>
    <i type="int" name="LMAXMIX">     2</i>
    <i type="logical" name="NLSPLINE"> F  </i>
   </separator>
   <separator name="electronic startup" >
    <i type="int" name="ISTART">     0</i>
    <i type="int" name="ICHARG">     2</i>
    <i type="int" name="INIWAV">     1</i>
   </separator>
   <separator name="electronic spin" >
    <i type="int" name="ISPIN">     2</i>
    <i type="logical" name="LNONCOLLINEAR"> F  </i>
    <v name="MAGMOM">      1.00000000      1.00000000</v>
    <i name="NUPDOWN">     -1.00000000</i>
    <i type="logical" name="LSORBIT"> F  </i>
    <v name="SAXIS">      0.00000000      0.00000000      1.00000000</v>
    <i type="logical" name="LSPIRAL"> F  </i>
    <v name="QSPIRAL">      0.00000000      0.00000000      0.00000000</v>
    <i type="logical" name="LZEROZ"> F  </i>
   </separator>
   <separator name="electronic exchange-correlation" >
    <i type="logical" name="LASPH"> T  </i>
   </separator>
   <separator name="electronic convergence" >
    <i type="int" name="NELM">    30</i>
    <i type="int" name="NELMDL">    -5</i>
    <i type="int" name="NELMIN">     5</i>
    <i name="ENINI">    400.00000000</i>
    <separator name="electronic convergence detail" >
     <i type="logical" name="LDIAG"> T  </i>
     <i type="logical" name="LSUBROT"> F  </i>
     <i name="WEIMIN">      0.00100000</i>
     <i name="EBREAK">      0.00000125</i>
     <i name="DEPER">      0.30000000</i>
     <i type="int" name="NRMM">     4</i>
     <i name="TIME">      0.40000000</i>
    </separator>
   </separator>
   <separator name="electronic mixer" >
    <i name="AMIX">      0.40000000</i>
    <i name="BMIX">      1.00000000</i>
    <i name="AMIN">      0.10000000</i>
    <i name="AMIX_MAG">      1.60000000</i>
    <i name="BMIX_MAG">      1.00000000</i>
    <separator name="electronic mixer details" >
     <i type="int" name="IMIX">     4</i>
     <i type="logical" name="MIXFIRST"> F  </i>
     <i type="int" name="MAXMIX">   -45</i>
     <i name="WC">    100.00000000</i>
     <i type="int" name="INIMIX">     1</i>
     <i type="int" name="MIXPRE">     1</i>
     <i type="int" name="MREMOVE">     5</i>
    </separator>
   </separator>
   <separator name="electronic dipolcorrection" >
    <i type="logical" name="LDIPOL"> F  </i>
    <i type="logical" name="LMONO"> F  </i>
    <i type="int" name="IDIPOL">     0</i>
    <i name="EPSILON">      1.00000000</i>
    <v name="DIPOL">   -100.00000000   -100.00000000   -100.00000000</v>
    <i name="EFIELD">      0.00000000</i>
    <i type="logical" name="LVACPOTAV"> F  </i>
   </separator>
  </separator>
  <separator name="grids" >
   <i type="int" name="NGX">    98</i>
   <i type="int" name="NGY">    98</i>
   <i type="int" name="NGZ">    98</i>
   <i type="int" name="NGXF">   196</i>
   <i type="int" name="NGYF">   196</i>
   <i type="int" name="NGZF">   196</i>
   <i type="logical" name="ADDGRID"> F  </i>
  </separator>
  <separator name="ionic" >
   <i type="int" name="NSW">     5</i>
   <i type="int" name="IBRION">     2</i>
   <i type="int" name="MDALGO">     0</i>
   <i type="int" name="ISIF">     2</i>
   <i name="PSTRESS">      0.00000000</i>
   <i name="EDIFFG">     -0.10000000</i>
   <i type="int" name="NFREE">     1</i>
   <i name="POTIM">      0.15000000</i>
   <i name="SMASS">     -3.00000000</i>
   <i name="SCALEE">      1.00000000</i>
  </separator>
  <separator name="ionic md" >
   <i name="TEBEG">      0.00010000</i>
   <i name="TEEND">      0.00010000</i>
   <i type="int" name="NBLOCK">     1</i>
   <i type="int" name="KBLOCK">     5</i>
   <i type="int" name="NPACO">   256</i>
   <i name="APACO">     10.00000000</i>
  </separator>
  <separator name="symmetry" >
   <i type="int" name="ISYM">     2</i>
   <i name="SYMPREC">      0.00001000</i>
  </separator>
  <separator name="dos" >
   <i type="int" name="LORBIT">    10</i>
   <v name="RWIGS">     -1.00000000</v>
   <i type="int" name="NEDOS">   301</i>
   <i name="EMIN">     10.00000000</i>
   <i name="EMAX">    -10.00000000</i>
   <i name="EFERMI">      0.00000000</i>
  </separator>
  <separator name="writing" >
   <i type="int" name="NWRITE">     2</i>
   <i type="logical" name="LWAVE"> F  </i>
   <i type="logical" name="LDOWNSAMPLE"> F  </i>
   <i type="logical" name="LCHARG"> F  </i>
   <i type="logical" name="LPARD"> F  </i>
   <i type="logical" name="LVTOT"> F  </i>
   <i type="logical" name="LVHAR"> F  </i>
   <i type="logical" name="LELF"> F  </i>
   <i type="logical" name="LOPTICS"> F  </i>
   <v name="STM">      0.00000000      0.00000000      0.00000000      0.00000000      0.00000000      0.00000000      0.00000000</v>
  </separator>
  <separator name="performance" >
   <i type="int" name="NPAR">    10</i>
   <i type="int" name="NSIM">    10</i>
   <i type="int" name="NBLK">    -1</i>
   <i type="logical" name="LPLANE"> T  </i>
   <i type="logical" name="LSCALAPACK"> T  </i>
   <i type="logical" name="LSCAAWARE"> F  </i>
   <i type="logical" name="LSCALU"> F  </i>
   <i type="logical" name="LASYNC"> F  </i>
   <i type="logical" name="LORBITALREAL"> F  </i>
  </separator>
  <separator name="miscellaneous" >
   <i type="int" name="IDIOT">     3</i>
   <i type="int" name="PHON_NSTRUCT">    -1</i>
   <i type="logical" name="LMUSIC"> F  </i>
   <v name="POMASS">     16.00000000</v>
   <v name="DARWINR">      0.00000000</v>
   <v name="DARWINV">      1.00000000</v>
   <i type="logical" name="LCORR"> T  </i>
  </separator>
  <i type="logical" name="GGA_COMPAT"> T  </i>
  <i type="logical" name="LBERRY"> F  </i>
  <i type="int" name="ICORELEVEL">     0</i>
  <i type="logical" name="LDAU"> F  </i>
  <i type="int" name="I_CONSTRAINED_M">     0</i>
  <separator name="electronic exchange-correlation" >
   <i type="string" name="GGA    ">PE</i>
   <i type="string" name="XC_C">1</i>
   <i type="int" name="VOSKOWN">     0</i>
   <i type="logical" name="LHFCALC"> F  </i>
   <i type="string" name="PRECFOCK"></i>
   <i type="logical" name="LSYMGRAD"> F  </i>
   <i type="logical" name="LHFONE"> F  </i>
   <i type="logical" name="LRHFCALC"> F  </i>
   <i type="logical" name="LTHOMAS"> F  </i>
   <i type="logical" name="LMODELHF"> F  </i>
   <i type="logical" name="LFOCKACE"> F  </i>
   <i name="ENCUT4O">     -1.00000000</i>
   <i type="int" name="EXXOEP">     0</i>
   <i type="int" name="FOURORBIT">     0</i>
   <i name="AEXX">      0.00000000</i>
   <i name="HFALPHA">      0.00000000</i>
   <i name="MCALPHA">      0.00000000</i>
   <i name="ALDAX">      1.00000000</i>
   <i name="AGGAX">      1.00000000</i>
   <i name="AMGGAX">      1.00000000</i>
   <i name="ALDAC">      1.00000000</i>
   <i name="AGGAC">      1.00000000</i>
   <i name="AMGGAC">      1.00000000</i>
   <i type="int" name="NKREDX">     1</i>
   <i type="int" name="NKREDY">     1</i>
   <i type="int" name="NKREDZ">     1</i>
   <i type="logical" name="SHIFTRED"> F  </i>
   <i type="logical" name="ODDONLY"> F  </i>
   <i type="logical" name="EVENONLY"> F  </i>
   <i type="int" name="LMAXFOCK">     0</i>
   <i type="int" name="NMAXFOCKAE">     0</i>
   <i type="logical" name="LFOCKAEDFT"> F  </i>
   <i name="HFSCREEN">      0.00000000</i>
   <i name="HFSCREENC">      0.00000000</i>
   <i type="int" name="NBANDSGWLOW">     0</i>
  </separator>
  <separator name="vdW DFT" >
   <i type="logical" name="LUSE_VDW"> F  </i>
   <i type="int" name="IVDW_NL">    -1</i>
   <i type="logical" name="LSPIN_VDW"> F  </i>
   <i name="ZAB_VDW">     -0.84910000</i>
   <i name="GAMMA_VDW">      1.39626340</i>
   <i name="ALPHA_VDW">      0.00000000</i>
   <i name="PARAM1">      0.12340000</i>
   <i name="PARAM2">      1.00000000</i>
   <i name="BPARAM">      6.30000000</i>
   <i name="CPARAM">      0.00930000</i>
  </separator>
  <separator name="model GW" >
   <i type="int" name="MODEL_GW">     0</i>
   <i name="MODEL_EPS0">   2400.00000000</i>
   <i name="MODEL_ALPHA">      1.00000000</i>
  </separator>
  <separator name="linear response parameters" >
   <i type="logical" name="LEPSILON"> F  </i>
   <i type="logical" name="LRPA"> F  </i>
   <i type="logical" name="LNABLA"> F  </i>
   <i type="logical" name="LVEL"> F  </i>
   <i name="CSHIFT">      0.10000000</i>
   <i name="OMEGAMAX">     -1.00000000</i>
   <i name="DEG_THRESHOLD">      0.00200000</i>
   <i name="RTIME">     -0.10000000</i>
   <i name="WPLASMAI">      0.00000000</i>
   <v name="DFIELD">      0.00000000      0.00000000      0.00000000</v>
   <v name="WPLASMA">      0.00000000      0.00000000      0.00000000      0.00000000      0.00000000      0.00000000      0.00000000      0.00000000      0.00000000</v>
  </separator>
  <separator name="orbital magnetization" >
   <i type="logical" name="NUCIND"> F  </i>
   <v name="MAGPOS">      0.00000000      0.00000000      0.00000000</v>
   <i type="logical" name="LNICSALL"> T  </i>
   <i type="logical" name="ORBITALMAG"> F  </i>
   <i type="logical" name="LMAGBLOCH"> F  </i>
   <i type="logical" name="LCHIMAG"> F  </i>
   <i type="logical" name="LGAUGE"> T  </i>
   <i type="int" name="MAGATOM">     0</i>
   <v name="MAGDIPOL">      0.00000000      0.00000000      0.00000000</v>
   <v name="AVECCONST">      0.00000000      0.00000000      0.00000000</v>
  </separator>
  <separator name="response functions" >
   <i type="logical" name="LALL_IN_ONE"> F  </i>
   <i type="int" name="IALL_IN_ONE">    -1</i>
   <i type="int" name="NBANDS_WAVE">    -1</i>
   <i type="logical" name="LFINITE_TEMPERATURE"> F  </i>
   <i type="logical" name="LADDER"> F  </i>
   <i type="logical" name="LRPAFORCE"> F  </i>
   <i type="logical" name="LFXC"> F  </i>
   <i type="logical" name="LHARTREE"> T  </i>
   <i type="int" name="IBSE">     0</i>
   <v type="int" name="KPOINT">    -1     0     0     0</v>
   <i type="logical" name="LTCTC"> F  </i>
   <i type="logical" name="LTCTE"> F  </i>
   <i type="logical" name="LTETE"> F  </i>
   <i type="logical" name="LTRIPLET"> F  </i>
   <i type="logical" name="LFXCEPS"> F  </i>
   <i type="logical" name="LFXHEG"> F  </i>
   <i type="int" name="NATURALO">     2</i>
   <i type="logical" name="LHOLEGF"> F  </i>
   <i type="logical" name="L2ORDER"> F  </i>
   <i type="logical" name="LDMP1"> F  </i>
   <i type="logical" name="LMP2LT"> F  </i>
   <i type="logical" name="LSMP2LT"> F  </i>
   <i type="logical" name="LGWLF"> F  </i>
   <i name="ENCUTGW">     -1.60000002</i>
   <i name="ENCUTGWSOFT">     -1.60000002</i>
   <i name="ENCUTLF">     -1.00000000</i>
   <i type="logical" name="ESF_SPLINES"> F  </i>
   <i name="ESF_CONV">      0.01000000</i>
   <i type="int" name="ESF_NINTER">    15</i>
   <i type="int" name="LMAXMP2">    -1</i>
   <i name="SCISSOR">      0.00000000</i>
   <i type="int" name="NOMEGA">     0</i>
   <i type="int" name="NOMEGAR">     0</i>
   <i type="int" name="NBANDSGW">    -1</i>
   <i type="int" name="NBANDSO">    -1</i>
   <i type="int" name="NBANDSV">    -1</i>
   <i type="int" name="NELMGW">     1</i>
   <i type="int" name="NELMHF">     1</i>
   <i type="int" name="DIM">     3</i>
   <i type="int" name="IESPILON">     4</i>
   <i type="int" name="ANTIRES">     0</i>
   <i name="OMEGAMAX">    -30.00000000</i>
   <i name="OMEGAMIN">    -30.00000000</i>
   <i name="OMEGATL">   -200.00000000</i>
   <i type="int" name="OMEGAGRID">     0</i>
   <i name="CSHIFT">     -0.10000000</i>
   <i type="logical" name="LSELFENERGY"> F  </i>
   <i type="logical" name="LSPECTRAL"> F  </i>
   <i type="logical" name="LSPECTRALGW"> F  </i>
   <i type="logical" name="LSINGLES"> F  </i>
   <i type="logical" name="LFERMIGW"> F  </i>
   <i type="logical" name="ODDONLYGW"> F  </i>
   <i type="logical" name="EVENONLYGW"> F  </i>
   <i type="int" name="NKREDLFX">     1</i>
   <i type="int" name="NKREDLFY">     1</i>
   <i type="int" name="NKREDLFZ">     1</i>
   <i type="int" name="MAXMEM">  2800</i>
   <i type="int" name="TELESCOPE">     0</i>
   <i type="int" name="NTAUPAR">    -1</i>
   <i type="int" name="NOMEGAPAR">    -1</i>
   <i name="DAMP_NEWTON">      0.80000001</i>
   <i name="LAMBDA">      1.00000000</i>
  </separator>
  <separator name="External order field" >
   <i name="OFIELD_KAPPA">      0.00000000</i>
   <v name="OFIELD_K">      0.00000000      0.00000000      0.00000000</v>
   <i name="OFIELD_Q6_NEAR">      0.00000000</i>
   <i name="OFIELD_Q6_FAR">      0.00000000</i>
   <i name="OFIELD_A">      0.00000000</i>
  </separator>
  <separator name="optional k-points parameters" >
   <i type="int" name="KPOINTS_OPT_MODE">     1</i>
   <i type="logical" name="LKPOINTS_OPT"> F  </i>
  </separator>
 </parameters>
 <atominfo>
  <atoms>       2 </atoms>
  <types>       1 </types>
  <array name="atoms" >
   <dimension dim="1">ion</dimension>
   <field type="string">element</field>
   <field type="int">atomtype</field>
   <set>
    <rc><c>O </c><c>   1</c></rc>
    <rc><c>O </c><c>   1</c></rc>
   </set>
  </array>
  <array name="atomtypes" >
   <dimension dim="1">type</dimension>
   <field type="int">atomspertype</field>
   <field type="string">element</field>
   <field>mass</field>
   <field>valence</field>
   <field type="string">pseudopotential</field>
   <set>
    <rc><c>   2</c><c>O </c><c>     16.00000000</c><c>      6.00000000</c><c>  PAW_PBE O 08Apr2002                   </c></rc>
   </set>
  </array>
 </atominfo>
 <structure name="initialpos" >
  <crystal>
   <varray name="basis" >
    <v>      20.00000000       0.00000000       0.00000000 </v>
    <v>       0.00000000      20.00000000       0.00000000 </v>
    <v>       0.00000000       0.00000000      20.00000000 </v>
   </varray>
   <i name="volume">   8000.00000000 </i>
   <varray name="rec_basis" >
    <v>       0.05000000       0.00000000       0.00000000 </v>
    <v>       0.00000000       0.05000000       0.00000000 </v>
    <v>       0.00000000       0.00000000       0.05000000 </v>
   </varray>
  </crystal>
  <varray name="positions" >
   <v>       0.50000000       0.50000000       0.53114890 </v>
   <v>       0.50000000       0.50000000       0.46885110 </v>
  </varray>
 </structure>
 <calculation>
  <scstep>
   <time name="dav">    0.63    0.63</time>
   <time name="total">    1.07    1.08</time>
   <energy>
    <i name="alphaZ">      0.06947723 </i>
    <i name="ewald">    269.18847645 </i>
    <i name="hartreedc">   -996.38106836 </i>
    <i name="XCdc">     54.58144425 </i>
    <i name="pawpsdc">    692.81204765 </i>
    <i name="pawaedc">   -696.39983308 </i>
    <i name="eentropy">     -0.13767519 </i>
    <i name="bandstr">   -105.76881100 </i>
    <i name="atom">    864.52639207 </i>
    <i name="e_fr_energy">     82.49045001 </i>
    <i name="e_wo_entrp">     82.62812520 </i>
    <i name="e_0_energy">     82.55928761 </i>
   </energy>
  </scstep>
  <scstep>
   <time name="dav">    0.48    0.49</time>
   <time name="total">    0.48    0.49</time>
   <energy>
    <i name="e_fr_energy">      8.56553163 </i>
    <i name="e_wo_entrp">      8.70526173 </i>
    <i name="e_0_energy">      8.63539668 </i>
   </energy>
  </scstep>
  <scstep>
   <time name="dav">    0.61    0.62</time>
   <time name="total">    0.61    0.62</time>
   <energy>
    <i name="e_fr_energy">     -8.78524166 </i>
    <i name="e_wo_entrp">     -8.78490484 </i>
    <i name="e_0_energy">     -8.78507325 </i>
   </energy>
  </scstep>
  <scstep>
   <time name="dav">    0.35    0.36</time>
   <time name="total">    0.35    0.36</time>
   <energy>
    <i name="e_fr_energy">    -10.68140482 </i>
    <i name="e_wo_entrp">    -10.68140476 </i>
    <i name="e_0_energy">    -10.68140479 </i>
   </energy>
  </scstep>
  <scstep>
   <time name="dav">    0.35    0.36</time>
   <time name="total">    0.55    0.56</time>
   <energy>
    <i name="e_fr_energy">    -10.71940668 </i>
    <i name="e_wo_entrp">    -10.71940662 </i>
    <i name="e_0_energy">    -10.71940665 </i>
   </energy>
  </scstep>
  <scstep>
   <time name="dav">    0.35    0.35</time>
   <time name="total">    0.98    0.99</time>
   <energy>
    <i name="e_fr_energy">    -10.42322251 </i>
    <i name="e_wo_entrp">    -10.42322251 </i>
    <i name="e_0_energy">    -10.42322251 </i>
   </energy>
  </scstep>
  <scstep>
   <time name="dav">    0.49    0.49</time>
   <time name="total">    1.11    1.12</time>
   <energy>
    <i name="e_fr_energy">    -10.80236922 </i>
    <i name="e_wo_entrp">    -10.80236922 </i>
    <i name="e_0_energy">    -10.80236922 </i>
   </energy>
  </scstep>
  <scstep>
   <time name="dav">    0.55    0.55</time>
   <time name="total">    1.18    1.19</time>
   <energy>
    <i name="e_fr_energy">    -10.80844130 </i>
    <i name="e_wo_entrp">    -10.80844130 </i>
    <i name="e_0_energy">    -10.80844130 </i>
   </energy>
  </scstep>
  <scstep>
   <time name="dav">    0.56    0.56</time>
   <time name="total">    1.19    1.20</time>
   <energy>
    <i name="e_fr_energy">    -10.82046143 </i>
    <i name="e_wo_entrp">    -10.82046143 </i>
    <i name="e_0_energy">    -10.82046143 </i>
   </energy>
  </scstep>
  <scstep>
   <time name="dav">    0.48    0.49</time>
   <time name="total">    1.11    1.12</time>
   <energy>
    <i name="e_fr_energy">    -10.82174922 </i>
    <i name="e_wo_entrp">    -10.82174922 </i>
    <i name="e_0_energy">    -10.82174922 </i>
   </energy>
  </scstep>
  <scstep>
   <time name="dav">    0.55    0.55</time>
   <time name="total">    1.18    1.18</time>
   <energy>
    <i name="e_fr_energy">    -10.82188115 </i>
    <i name="e_wo_entrp">    -10.82188115 </i>
    <i name="e_0_energy">    -10.82188115 </i>
   </energy>
  </scstep>
  <scstep>
   <time name="dav">    0.55    0.55</time>
   <time name="total">    0.98    0.99</time>
   <energy>
    <i name="alphaZ">      0.06947723 </i>
    <i name="ewald">    269.18847645 </i>
    <i name="hartreedc">  -1002.78732779 </i>
    <i name="XCdc">     55.25981201 </i>
    <i name="pawpsdc">    867.36421113 </i>
    <i name="pawaedc">   -870.46808838 </i>
    <i name="eentropy">     -0.00000000 </i>
    <i name="bandstr">   -193.97491666 </i>
    <i name="atom">    864.52639207 </i>
    <i name="e_fr_energy">    -10.82196394 </i>
    <i name="e_wo_entrp">    -10.82196394 </i>
    <i name="e_0_energy">    -10.82196394 </i>
   </energy>
  </scstep>
  <structure>
   <crystal>
    <varray name="basis" >
     <v>      20.00000000       0.00000000       0.00000000 </v>
     <v>       0.00000000      20.00000000       0.00000000 </v>
     <v>       0.00000000       0.00000000      20.00000000 </v>
    </varray>
    <i name="volume">   8000.00000000 </i>
    <varray name="rec_basis" >
     <v>       0.05000000       0.00000000       0.00000000 </v>
     <v>       0.00000000       0.05000000       0.00000000 </v>
     <v>       0.00000000       0.00000000       0.05000000 </v>
    </varray>
   </crystal>
   <varray name="positions" >
    <v>       0.50000000       0.50000000       0.53114890 </v>
    <v>       0.50000000       0.50000000       0.46885110 </v>
   </varray>
  </structure>
  <varray name="forces" >
   <v>      -0.00000000      -0.00000000      -6.30248075 </v>
   <v>       0.00000000       0.00000000       6.30248075 </v>
  </varray>
  <varray name="stress" >
   <v>      -2.00497356       0.00000000       0.00000000 </v>
   <v>       0.00000000      -2.00497356       0.00000000 </v>
   <v>       0.00000000      -0.00000000      -0.85809175 </v>
  </varray>
  <energy>
   <i name="e_fr_energy">    -10.82196394 </i>
   <i name="e_wo_entrp">    -10.82196394 </i>
   <i name="e_0_energy">    -10.82196394 </i>
  </energy>
  <time name="totalsc">   12.40   12.52</time>
 </calculation>
 <calculation>
  <scstep>
   <time name="dav">    0.35    0.35</time>
   <time name="total">    0.97    0.98</time>
   <energy>
    <i name="alphaZ">      0.06947723 </i>
    <i name="ewald">    340.49836743 </i>
    <i name="hartreedc">  -1052.04096237 </i>
    <i name="XCdc">     56.24726827 </i>
    <i name="pawpsdc">    867.31579369 </i>
    <i name="pawaedc">   -870.42002661 </i>
    <i name="eentropy">     -0.00000000 </i>
    <i name="bandstr">   -214.47545084 </i>
    <i name="atom">    864.52639207 </i>
    <i name="e_fr_energy">     -8.27914112 </i>
    <i name="e_wo_entrp">     -8.27914112 </i>
    <i name="e_0_energy">     -8.27914112 </i>
   </energy>
  </scstep>
  <scstep>
   <time name="dav">    0.42    0.42</time>
   <time name="total">    1.05    1.06</time>
   <energy>
    <i name="e_fr_energy">     -8.30844671 </i>
    <i name="e_wo_entrp">     -8.30844671 </i>
    <i name="e_0_energy">     -8.30844671 </i>
   </energy>
  </scstep>
  <scstep>
   <time name="dav">    0.35    0.35</time>
   <time name="total">    0.97    0.98</time>
   <energy>
    <i name="e_fr_energy">     -8.33907303 </i>
    <i name="e_wo_entrp">     -8.33907303 </i>
    <i name="e_0_energy">     -8.33907303 </i>
   </energy>
  </scstep>
  <scstep>
   <time name="dav">    0.55    0.55</time>
   <time name="total">    1.17    1.18</time>
   <energy>
    <i name="e_fr_energy">     -8.33482143 </i>
    <i name="e_wo_entrp">     -8.33482143 </i>
    <i name="e_0_energy">     -8.33482143 </i>
   </energy>
  </scstep>
  <scstep>
   <time name="dav">    0.35    0.35</time>
   <time name="total">    0.97    0.98</time>
   <energy>
    <i name="e_fr_energy">     -8.33981618 </i>
    <i name="e_wo_entrp">     -8.33981618 </i>
    <i name="e_0_energy">     -8.33981618 </i>
   </energy>
  </scstep>
  <scstep>
   <time name="dav">    0.35    0.35</time>
   <time name="total">    0.97    0.98</time>
   <energy>
    <i name="e_fr_energy">     -8.34000792 </i>
    <i name="e_wo_entrp">     -8.34000792 </i>
    <i name="e_0_energy">     -8.34000792 </i>
   </energy>
  </scstep>
  <scstep>
   <time name="dav">    0.42    0.42</time>
   <time name="total">    1.04    1.05</time>
   <energy>
    <i name="e_fr_energy">     -8.34122697 </i>
    <i name="e_wo_entrp">     -8.34122697 </i>
    <i name="e_0_energy">     -8.34122697 </i>
   </energy>
  </scstep>
  <scstep>
   <time name="dav">    0.42    0.42</time>
   <time name="total">    1.04    1.05</time>
   <energy>
    <i name="e_fr_energy">     -8.34159756 </i>
    <i name="e_wo_entrp">     -8.34159756 </i>
    <i name="e_0_energy">     -8.34159756 </i>
   </energy>
  </scstep>
  <scstep>
   <time name="dav">    0.55    0.55</time>
   <time name="total">    1.17    1.18</time>
   <energy>
    <i name="e_fr_energy">     -8.34212676 </i>
    <i name="e_wo_entrp">     -8.34212676 </i>
    <i name="e_0_energy">     -8.34212676 </i>
   </energy>
  </scstep>
  <scstep>
   <time name="dav">    0.48    0.48</time>
   <time name="total">    1.10    1.11</time>
   <energy>
    <i name="e_fr_energy">     -8.34234650 </i>
    <i name="e_wo_entrp">     -8.34234650 </i>
    <i name="e_0_energy">     -8.34234650 </i>
   </energy>
  </scstep>
  <scstep>
   <time name="dav">    0.42    0.42</time>
   <time name="total">    1.05    1.05</time>
   <energy>
    <i name="e_fr_energy">     -8.34253090 </i>
    <i name="e_wo_entrp">     -8.34253090 </i>
    <i name="e_0_energy">     -8.34253090 </i>
   </energy>
  </scstep>
  <scstep>
   <time name="dav">    0.50    0.50</time>
   <time name="total">    1.13    1.14</time>
   <energy>
    <i name="e_fr_energy">     -8.34265251 </i>
    <i name="e_wo_entrp">     -8.34265251 </i>
    <i name="e_0_energy">     -8.34265251 </i>
   </energy>
  </scstep>
  <scstep>
   <time name="dav">    0.49    0.49</time>
   <time name="total">    0.91    0.92</time>
   <energy>
    <i name="alphaZ">      0.06947723 </i>
    <i name="ewald">    340.49836743 </i>
    <i name="hartreedc">  -1062.24102506 </i>
    <i name="XCdc">     56.82659553 </i>
    <i name="pawpsdc">   1071.01872765 </i>
    <i name="pawaedc">  -1074.80547979 </i>
    <i name="eentropy">     -0.00000000 </i>
    <i name="bandstr">   -204.23575957 </i>
    <i name="atom">    864.52639207 </i>
    <i name="e_fr_energy">     -8.34270449 </i>
    <i name="e_wo_entrp">     -8.34270449 </i>
    <i name="e_0_energy">     -8.34270449 </i>
   </energy>
  </scstep>
  <structure>
   <crystal>
    <varray name="basis" >
     <v>      20.00000000       0.00000000       0.00000000 </v>
     <v>       0.00000000      20.00000000       0.00000000 </v>
     <v>       0.00000000       0.00000000      20.00000000 </v>
    </varray>
    <i name="volume">   8000.00000000 </i>
    <varray name="rec_basis" >
     <v>       0.05000000       0.00000000       0.00000000 </v>
     <v>       0.00000000       0.05000000       0.00000000 </v>
     <v>       0.00000000       0.00000000       0.05000000 </v>
    </varray>
   </crystal>
   <varray name="positions" >
    <v>       0.50000000       0.50000000       0.52658817 </v>
    <v>       0.50000000       0.50000000       0.47341183 </v>
   </varray>
  </structure>
  <varray name="forces" >
   <v>      -0.00000000       0.00000000      22.18062371 </v>
   <v>       0.00000000      -0.00000000     -22.18062371 </v>
  </varray>
  <varray name="stress" >
   <v>      -1.12778316       0.00000000      -0.00000000 </v>
   <v>       0.00000000      -1.12778316      -0.00000000 </v>
   <v>       0.00000000       0.00000000       4.18855820 </v>
  </varray>
  <energy>
   <i name="e_fr_energy">     -8.34270449 </i>
   <i name="e_wo_entrp">     -8.34270449 </i>
   <i name="e_0_energy">     -8.34270449 </i>
  </energy>
  <time name="totalsc">   15.16   15.29</time>
 </calculation>
 <calculation>
  <scstep>
   <time name="dav">    0.35    0.35</time>
   <time name="total">    0.97    0.98</time>
   <energy>
    <i name="alphaZ">      0.06947723 </i>
    <i name="ewald">    283.10564602 </i>
    <i name="hartreedc">  -1023.15507280 </i>
    <i name="XCdc">     56.04588582 </i>
    <i name="pawpsdc">   1071.01731790 </i>
    <i name="pawaedc">  -1074.80406389 </i>
    <i name="eentropy">     -0.00000000 </i>
    <i name="bandstr">   -187.67807667 </i>
    <i name="atom">    864.52639207 </i>
    <i name="e_fr_energy">    -10.87249433 </i>
    <i name="e_wo_entrp">    -10.87249433 </i>
    <i name="e_0_energy">    -10.87249433 </i>
   </energy>
  </scstep>
  <scstep>
   <time name="dav">    0.35    0.35</time>
   <time name="total">    0.97    0.98</time>
   <energy>
    <i name="e_fr_energy">    -10.78726853 </i>
    <i name="e_wo_entrp">    -10.78726853 </i>
    <i name="e_0_energy">    -10.78726853 </i>
   </energy>
  </scstep>
  <scstep>
   <time name="dav">    0.62    0.62</time>
   <time name="total">    1.24    1.25</time>
   <energy>
    <i name="e_fr_energy">    -10.82220474 </i>
    <i name="e_wo_entrp">    -10.82220474 </i>
    <i name="e_0_energy">    -10.82220474 </i>
   </energy>
  </scstep>
  <scstep>
   <time name="dav">    0.42    0.42</time>
   <time name="total">    1.04    1.05</time>
   <energy>
    <i name="e_fr_energy">    -10.82705280 </i>
    <i name="e_wo_entrp">    -10.82705280 </i>
    <i name="e_0_energy">    -10.82705280 </i>
   </energy>
  </scstep>
  <scstep>
   <time name="dav">    0.55    0.55</time>
   <time name="total">    1.17    1.18</time>
   <energy>
    <i name="e_fr_energy">    -10.83037467 </i>
    <i name="e_wo_entrp">    -10.83037467 </i>
    <i name="e_0_energy">    -10.83037467 </i>
   </energy>
  </scstep>
  <scstep>
   <time name="dav">    0.62    0.62</time>
   <time name="total">    1.24    1.25</time>
   <energy>
    <i name="e_fr_energy">    -10.83117435 </i>
    <i name="e_wo_entrp">    -10.83117435 </i>
    <i name="e_0_energy">    -10.83117435 </i>
   </energy>
  </scstep>
  <scstep>
   <time name="dav">    0.35    0.35</time>
   <time name="total">    0.97    0.99</time>
   <energy>
    <i name="e_fr_energy">    -10.83139036 </i>
    <i name="e_wo_entrp">    -10.83139036 </i>
    <i name="e_0_energy">    -10.83139036 </i>
   </energy>
  </scstep>
  <scstep>
   <time name="dav">    0.35    0.35</time>
   <time name="total">    0.97    0.98</time>
   <energy>
    <i name="e_fr_energy">    -10.83156715 </i>
    <i name="e_wo_entrp">    -10.83156715 </i>
    <i name="e_0_energy">    -10.83156715 </i>
   </energy>
  </scstep>
  <scstep>
   <time name="dav">    0.55    0.55</time>
   <time name="total">    1.17    1.18</time>
   <energy>
    <i name="e_fr_energy">    -10.83175284 </i>
    <i name="e_wo_entrp">    -10.83175284 </i>
    <i name="e_0_energy">    -10.83175284 </i>
   </energy>
  </scstep>
  <scstep>
   <time name="dav">    0.35    0.35</time>
   <time name="total">    0.78    0.79</time>
   <energy>
    <i name="alphaZ">      0.06947723 </i>
    <i name="ewald">    283.10564602 </i>
    <i name="hartreedc">  -1015.13425849 </i>
    <i name="XCdc">     55.56460423 </i>
    <i name="pawpsdc">    900.74329493 </i>
    <i name="pawaedc">   -903.89632497 </i>
    <i name="eentropy">     -0.00000000 </i>
    <i name="bandstr">   -195.81067735 </i>
    <i name="atom">    864.52639207 </i>
    <i name="e_fr_energy">    -10.83184633 </i>
    <i name="e_wo_entrp">    -10.83184633 </i>
    <i name="e_0_energy">    -10.83184633 </i>
   </energy>
  </scstep>
  <structure>
   <crystal>
    <varray name="basis" >
     <v>      20.00000000       0.00000000       0.00000000 </v>
     <v>       0.00000000      20.00000000       0.00000000 </v>
     <v>       0.00000000       0.00000000      20.00000000 </v>
    </varray>
    <i name="volume">   8000.00000000 </i>
    <varray name="rec_basis" >
     <v>       0.05000000       0.00000000       0.00000000 </v>
     <v>       0.00000000       0.05000000       0.00000000 </v>
     <v>       0.00000000       0.00000000       0.05000000 </v>
    </varray>
   </crystal>
   <varray name="positions" >
    <v>       0.50000000       0.50000000       0.53013974 </v>
    <v>       0.50000000       0.50000000       0.46986026 </v>
   </varray>
  </structure>
  <varray name="forces" >
   <v>       0.00000000      -0.00000000       6.94919172 </v>
   <v>      -0.00000000       0.00000000      -6.94919172 </v>
  </varray>
  <varray name="stress" >
   <v>      -2.03664006       0.00000000       0.00000000 </v>
   <v>       0.00000000      -2.03664006      -0.00000000 </v>
   <v>      -0.00000000       0.00000000       0.36932278 </v>
  </varray>
  <energy>
   <i name="e_fr_energy">    -10.83184633 </i>
   <i name="e_wo_entrp">    -10.83184633 </i>
   <i name="e_0_energy">    -10.83184633 </i>
  </energy>
  <time name="totalsc">   12.16   12.26</time>
 </calculation>
 <calculation>
  <scstep>
   <time name="dav">    0.35    0.35</time>
   <time name="total">    0.97    0.97</time>
   <energy>
    <i name="alphaZ">      0.06947723 </i>
    <i name="ewald">    275.69308565 </i>
    <i name="hartreedc">  -1009.74831637 </i>
    <i name="XCdc">     55.46727540 </i>
    <i name="pawpsdc">    900.77257026 </i>
    <i name="pawaedc">   -903.92533876 </i>
    <i name="eentropy">     -0.00000000 </i>
    <i name="bandstr">   -193.74702820 </i>
    <i name="atom">    864.52639207 </i>
    <i name="e_fr_energy">    -10.89188272 </i>
    <i name="e_wo_entrp">    -10.89188272 </i>
    <i name="e_0_energy">    -10.89188272 </i>
   </energy>
  </scstep>
  <scstep>
   <time name="dav">    0.50    0.50</time>
   <time name="total">    1.13    1.13</time>
   <energy>
    <i name="e_fr_energy">    -10.89206252 </i>
    <i name="e_wo_entrp">    -10.89206252 </i>
    <i name="e_0_energy">    -10.89206252 </i>
   </energy>
  </scstep>
  <scstep>
   <time name="dav">    0.35    0.35</time>
   <time name="total">    0.97    0.98</time>
   <energy>
    <i name="e_fr_energy">    -10.89270204 </i>
    <i name="e_wo_entrp">    -10.89270204 </i>
    <i name="e_0_energy">    -10.89270204 </i>
   </energy>
  </scstep>
  <scstep>
   <time name="dav">    0.35    0.35</time>
   <time name="total">    0.97    0.98</time>
   <energy>
    <i name="e_fr_energy">    -10.89281522 </i>
    <i name="e_wo_entrp">    -10.89281522 </i>
    <i name="e_0_energy">    -10.89281522 </i>
   </energy>
  </scstep>
  <scstep>
   <time name="dav">    0.35    0.35</time>
   <time name="total">    0.78    0.79</time>
   <energy>
    <i name="alphaZ">      0.06947723 </i>
    <i name="ewald">    275.69308565 </i>
    <i name="hartreedc">  -1008.67733119 </i>
    <i name="XCdc">     55.40282860 </i>
    <i name="pawpsdc">    882.02032287 </i>
    <i name="pawaedc">   -885.13029663 </i>
    <i name="eentropy">     -0.00000000 </i>
    <i name="bandstr">   -194.79735677 </i>
    <i name="atom">    864.52639207 </i>
    <i name="e_fr_energy">    -10.89287817 </i>
    <i name="e_wo_entrp">    -10.89287817 </i>
    <i name="e_0_energy">    -10.89287817 </i>
   </energy>
  </scstep>
  <structure>
   <crystal>
    <varray name="basis" >
     <v>      20.00000000       0.00000000       0.00000000 </v>
     <v>       0.00000000      20.00000000       0.00000000 </v>
     <v>       0.00000000       0.00000000      20.00000000 </v>
    </varray>
    <i name="volume">   8000.00000000 </i>
    <varray name="rec_basis" >
     <v>       0.05000000       0.00000000       0.00000000 </v>
     <v>       0.00000000       0.05000000       0.00000000 </v>
     <v>       0.00000000       0.00000000       0.05000000 </v>
    </varray>
   </crystal>
   <varray name="positions" >
    <v>       0.50000000       0.50000000       0.53066895 </v>
    <v>       0.50000000       0.50000000       0.46933105 </v>
   </varray>
  </structure>
  <varray name="forces" >
   <v>       0.00000000       0.00000000      -0.71364555 </v>
   <v>      -0.00000000      -0.00000000       0.71364555 </v>
  </varray>
  <varray name="stress" >
   <v>      -2.27794425       0.00000000       0.00000000 </v>
   <v>       0.00000000      -2.27794425       0.00000000 </v>
   <v>       0.00000000      -0.00000000      -2.07237838 </v>
  </varray>
  <energy>
   <i name="e_fr_energy">    -10.89287817 </i>
   <i name="e_wo_entrp">    -10.89287817 </i>
   <i name="e_0_energy">    -10.89287817 </i>
  </energy>
  <time name="totalsc">    6.43    6.47</time>
 </calculation>
 <calculation>
  <scstep>
   <time name="dav">    0.48    0.48</time>
   <time name="total">    1.10    1.11</time>
   <energy>
    <i name="alphaZ">      0.06947723 </i>
    <i name="ewald">    276.45951121 </i>
    <i name="hartreedc">  -1009.26925180 </i>
    <i name="XCdc">     55.41439985 </i>
    <i name="pawpsdc">    880.77767051 </i>
    <i name="pawaedc">   -883.88614600 </i>
    <i name="eentropy">     -0.00000000 </i>
    <i name="bandstr">   -194.98575288 </i>
    <i name="atom">    864.52639207 </i>
    <i name="e_fr_energy">    -10.89369982 </i>
    <i name="e_wo_entrp">    -10.89369982 </i>
    <i name="e_0_energy">    -10.89369982 </i>
   </energy>
  </scstep>
  <scstep>
   <time name="dav">    0.41    0.42</time>
   <time name="total">    1.04    1.05</time>
   <energy>
    <i name="e_fr_energy">    -10.89372055 </i>
    <i name="e_wo_entrp">    -10.89372055 </i>
    <i name="e_0_energy">    -10.89372055 </i>
   </energy>
  </scstep>
  <scstep>
   <time name="dav">    0.55    0.55</time>
   <time name="total">    1.17    1.18</time>
   <energy>
    <i name="e_fr_energy">    -10.89373696 </i>
    <i name="e_wo_entrp">    -10.89373696 </i>
    <i name="e_0_energy">    -10.89373696 </i>
   </energy>
  </scstep>
  <scstep>
   <time name="dav">    0.48    0.48</time>
   <time name="total">    1.10    1.11</time>
   <energy>
    <i name="e_fr_energy">    -10.89375073 </i>
    <i name="e_wo_entrp">    -10.89375073 </i>
    <i name="e_0_energy">    -10.89375073 </i>
   </energy>
  </scstep>
  <scstep>
   <time name="dav">    0.55    0.55</time>
   <time name="total">    0.98    0.98</time>
   <energy>
    <i name="alphaZ">      0.06947723 </i>
    <i name="ewald">    276.45951121 </i>
    <i name="hartreedc">  -1009.37960152 </i>
    <i name="XCdc">     55.42085327 </i>
    <i name="pawpsdc">    882.17564014 </i>
    <i name="pawaedc">   -885.28667910 </i>
    <i name="eentropy">     -0.00000000 </i>
    <i name="bandstr">   -194.87935057 </i>
    <i name="atom">    864.52639207 </i>
    <i name="e_fr_energy">    -10.89375727 </i>
    <i name="e_wo_entrp">    -10.89375727 </i>
    <i name="e_0_energy">    -10.89375727 </i>
   </energy>
  </scstep>
  <structure>
   <crystal>
    <varray name="basis" >
     <v>      20.00000000       0.00000000       0.00000000 </v>
     <v>       0.00000000      20.00000000       0.00000000 </v>
     <v>       0.00000000       0.00000000      20.00000000 </v>
    </varray>
    <i name="volume">   8000.00000000 </i>
    <varray name="rec_basis" >
     <v>       0.05000000       0.00000000       0.00000000 </v>
     <v>       0.00000000       0.05000000       0.00000000 </v>
     <v>       0.00000000       0.00000000       0.05000000 </v>
    </varray>
   </crystal>
   <varray name="positions" >
    <v>       0.50000000       0.50000000       0.53061337 </v>
    <v>       0.50000000       0.50000000       0.46938663 </v>
   </varray>
  </structure>
  <varray name="forces" >
   <v>      -0.00000000       0.00000000      -0.00791621 </v>
   <v>       0.00000000      -0.00000000       0.00791621 </v>
  </varray>
  <varray name="stress" >
   <v>      -2.28334770       0.00000000       0.00000000 </v>
   <v>       0.00000000      -2.28334770       0.00000000 </v>
   <v>      -0.00000000      -0.00000000      -2.05282361 </v>
  </varray>
  <energy>
   <i name="e_fr_energy">    -10.89375727 </i>
   <i name="e_wo_entrp">    -10.89375727 </i>
   <i name="e_0_energy">    -10.89375727 </i>
  </energy>
  <time name="totalsc">    6.94    6.99</time>
  <eigenvalues>
   <array>
    <dimension dim="1">band</dimension>
    <dimension dim="2">kpoint</dimension>
    <dimension dim="3">spin</dimension>
    <field>eigene</field>
    <field>occ</field>
    <set>
     <set comment="spin 1">
      <set comment="kpoint 1">
       <r>  -32.9938    1.0000 </r>
       <r>  -20.7992    1.0000 </r>
       <r>  -13.5496    1.0000 </r>
       <r>  -13.4598    1.0000 </r>
       <r>  -13.4598    1.0000 </r>
       <r>   -6.9914    1.0000 </r>
       <r>   -6.9914    1.0000 </r>
       <r>   -0.2114    0.0000 </r>
       <r>    0.0964    0.0000 </r>
       <r>    0.2143    0.0000 </r>
       <r>    0.3091    0.0000 </r>
       <r>    0.3091    0.0000 </r>
       <r>    0.3292    0.0000 </r>
       <r>    0.3298    0.0000 </r>
       <r>    0.4991    0.0000 </r>
       <r>    0.5583    0.0000 </r>
       <r>    0.6239    0.0000 </r>
       <r>    0.6239    0.0000 </r>
       <r>    0.6775    0.0000 </r>
       <r>    0.7241    0.0000 </r>
      </set>
     </set>
     <set comment="spin 2">
      <set comment="kpoint 1">
       <r>  -31.7858    1.0000 </r>
       <r>  -19.0022    1.0000 </r>
       <r>  -12.6447    1.0000 </r>
       <r>  -11.6009    1.0000 </r>
       <r>  -11.6009    1.0000 </r>
       <r>   -4.6947    0.0000 </r>
       <r>   -4.6947    0.0000 </r>
       <r>   -0.1252    0.0000 </r>
       <r>    0.1472    0.0000 </r>
       <r>    0.2678    0.0000 </r>
       <r>    0.3334    0.0000 </r>
       <r>    0.3334    0.0000 </r>
       <r>    0.3428    0.0000 </r>
       <r>    0.3448    0.0000 </r>
       <r>    0.5619    0.0000 </r>
       <r>    0.5808    0.0000 </r>
       <r>    0.6606    0.0000 </r>
       <r>    0.6606    0.0000 </r>
       <r>    0.6932    0.0000 </r>
       <r>    0.7344    0.0000 </r>
      </set>
     </set>
    </set>
   </array>
  </eigenvalues>
  <separator name="orbital magnetization" >
   <v name="MAGDIPOLOUT">      0.00000000      0.00000000      0.00000000</v>
  </separator>
  <dos>
   <i name="efermi">     -6.06686343 </i>
   <total>
    <array>
     <dimension dim="1">gridpoints</dimension>
     <dimension dim="2">spin</dimension>
     <field>energy</field>
     <field>total</field>
     <field>integrated</field>
     <set>
      <set comment="spin 1">
       <r>   -34.9938     0.0000     0.0000 </r>
       <r>   -34.8680     0.0000     0.0000 </r>
       <r>   -34.7423     0.0000     0.0000 </r>
       <r>   -34.6165     0.0000     0.0000 </r>
       <r>   -34.4908     0.0000     0.0000 </r>
       <r>   -34.3650     0.0000     0.0000 </r>
       <r>   -34.2392     0.0000     0.0000 </r>
       <r>   -34.1135     0.0000     0.0000 </r>
       <r>   -33.9877     0.0000     0.0000 </r>
       <r>   -33.8620     0.0000     0.0000 </r>
       <r>   -33.7362     0.0000     0.0000 </r>
       <r>   -33.6104     0.0001     0.0000 </r>
       <r>   -33.4847     0.0020     0.0003 </r>
       <r>   -33.3589     0.0370     0.0049 </r>
       <r>   -33.2332     0.3210     0.0453 </r>
       <r>   -33.1074     1.3172     0.2109 </r>
       <r>   -32.9816     2.5713     0.5343 </r>
       <r>   -32.8559     2.3935     0.8353 </r>
       <r>   -32.7301     1.0622     0.9689 </r>
       <r>   -32.6044     0.2240     0.9971 </r>
       <r>   -32.4786     0.0223     0.9999 </r>
       <r>   -32.3528     0.0010     1.0000 </r>
       <r>   -32.2271     0.0000     1.0000 </r>
       <r>   -32.1013     0.0000     1.0000 </r>
       <r>   -31.9756     0.0000     1.0000 </r>
       <r>   -31.8498     0.0000     1.0000 </r>
       <r>   -31.7240     0.0000     1.0000 </r>
       <r>   -31.5983     0.0000     1.0000 </r>
       <r>   -31.4725     0.0000     1.0000 </r>
       <r>   -31.3467     0.0000     1.0000 </r>
       <r>   -31.2210     0.0000     1.0000 </r>
       <r>   -31.0952     0.0000     1.0000 </r>
       <r>   -30.9695     0.0000     1.0000 </r>
       <r>   -30.8437     0.0000     1.0000 </r>
       <r>   -30.7179     0.0000     1.0000 </r>
       <r>   -30.5922     0.0000     1.0000 </r>
       <r>   -30.4664     0.0000     1.0000 </r>
       <r>   -30.3407     0.0000     1.0000 </r>
       <r>   -30.2149     0.0000     1.0000 </r>
       <r>   -30.0891     0.0000     1.0000 </r>
       <r>   -29.9634     0.0000     1.0000 </r>
       <r>   -29.8376     0.0000     1.0000 </r>
       <r>   -29.7119     0.0000     1.0000 </r>
       <r>   -29.5861     0.0000     1.0000 </r>
       <r>   -29.4603     0.0000     1.0000 </r>
       <r>   -29.3346     0.0000     1.0000 </r>
       <r>   -29.2088     0.0000     1.0000 </r>
       <r>   -29.0831     0.0000     1.0000 </r>
       <r>   -28.9573     0.0000     1.0000 </r>
       <r>   -28.8315     0.0000     1.0000 </r>
       <r>   -28.7058     0.0000     1.0000 </r>
       <r>   -28.5800     0.0000     1.0000 </r>
       <r>   -28.4542     0.0000     1.0000 </r>
       <r>   -28.3285     0.0000     1.0000 </r>
       <r>   -28.2027     0.0000     1.0000 </r>
       <r>   -28.0770     0.0000     1.0000 </r>
       <r>   -27.9512     0.0000     1.0000 </r>
       <r>   -27.8254     0.0000     1.0000 </r>
       <r>   -27.6997     0.0000     1.0000 </r>
       <r>   -27.5739     0.0000     1.0000 </r>
       <r>   -27.4482     0.0000     1.0000 </r>
       <r>   -27.3224     0.0000     1.0000 </r>
       <r>   -27.1966     0.0000     1.0000 </r>
       <r>   -27.0709     0.0000     1.0000 </r>
       <r>   -26.9451     0.0000     1.0000 </r>
       <r>   -26.8194     0.0000     1.0000 </r>
       <r>   -26.6936     0.0000     1.0000 </r>
       <r>   -26.5678     0.0000     1.0000 </r>
       <r>   -26.4421     0.0000     1.0000 </r>
       <r>   -26.3163     0.0000     1.0000 </r>
       <r>   -26.1906     0.0000     1.0000 </r>
       <r>   -26.0648     0.0000     1.0000 </r>
       <r>   -25.9390     0.0000     1.0000 </r>
       <r>   -25.8133     0.0000     1.0000 </r>
       <r>   -25.6875     0.0000     1.0000 </r>
       <r>   -25.5618     0.0000     1.0000 </r>
       <r>   -25.4360     0.0000     1.0000 </r>
       <r>   -25.3102     0.0000     1.0000 </r>
       <r>   -25.1845     0.0000     1.0000 </r>
       <r>   -25.0587     0.0000     1.0000 </r>
       <r>   -24.9329     0.0000     1.0000 </r>
       <r>   -24.8072     0.0000     1.0000 </r>
       <r>   -24.6814     0.0000     1.0000 </r>
       <r>   -24.5557     0.0000     1.0000 </r>
       <r>   -24.4299     0.0000     1.0000 </r>
       <r>   -24.3041     0.0000     1.0000 </r>
       <r>   -24.1784     0.0000     1.0000 </r>
       <r>   -24.0526     0.0000     1.0000 </r>
       <r>   -23.9269     0.0000     1.0000 </r>
       <r>   -23.8011     0.0000     1.0000 </r>
       <r>   -23.6753     0.0000     1.0000 </r>
       <r>   -23.5496     0.0000     1.0000 </r>
       <r>   -23.4238     0.0000     1.0000 </r>
       <r>   -23.2981     0.0000     1.0000 </r>
       <r>   -23.1723     0.0000     1.0000 </r>
       <r>   -23.0465     0.0000     1.0000 </r>
       <r>   -22.9208     0.0000     1.0000 </r>
       <r>   -22.7950     0.0000     1.0000 </r>
       <r>   -22.6693     0.0000     1.0000 </r>
       <r>   -22.5435     0.0000     1.0000 </r>
       <r>   -22.4177     0.0000     1.0000 </r>
       <r>   -22.2920     0.0000     1.0000 </r>
       <r>   -22.1662     0.0000     1.0000 </r>
       <r>   -22.0404     0.0000     1.0000 </r>
       <r>   -21.9147     0.0000     1.0000 </r>
       <r>   -21.7889     0.0000     1.0000 </r>
       <r>   -21.6632     0.0000     1.0000 </r>
       <r>   -21.5374     0.0000     1.0000 </r>
       <r>   -21.4116     0.0001     1.0000 </r>
       <r>   -21.2859     0.0022     1.0003 </r>
       <r>   -21.1601     0.0403     1.0054 </r>
       <r>   -21.0344     0.3407     1.0482 </r>
       <r>   -20.9086     1.3635     1.2197 </r>
       <r>   -20.7828     2.5961     1.5462 </r>
       <r>   -20.6571     2.3572     1.8426 </r>
       <r>   -20.5313     1.0203     1.9709 </r>
       <r>   -20.4056     0.2099     1.9973 </r>
       <r>   -20.2798     0.0204     1.9999 </r>
       <r>   -20.1540     0.0009     2.0000 </r>
       <r>   -20.0283     0.0000     2.0000 </r>
       <r>   -19.9025     0.0000     2.0000 </r>
       <r>   -19.7768     0.0000     2.0000 </r>
       <r>   -19.6510     0.0000     2.0000 </r>
       <r>   -19.5252     0.0000     2.0000 </r>
       <r>   -19.3995     0.0000     2.0000 </r>
       <r>   -19.2737     0.0000     2.0000 </r>
       <r>   -19.1480     0.0000     2.0000 </r>
       <r>   -19.0222     0.0000     2.0000 </r>
       <r>   -18.8964     0.0000     2.0000 </r>
       <r>   -18.7707     0.0000     2.0000 </r>
       <r>   -18.6449     0.0000     2.0000 </r>
       <r>   -18.5191     0.0000     2.0000 </r>
       <r>   -18.3934     0.0000     2.0000 </r>
       <r>   -18.2676     0.0000     2.0000 </r>
       <r>   -18.1419     0.0000     2.0000 </r>
       <r>   -18.0161     0.0000     2.0000 </r>
       <r>   -17.8903     0.0000     2.0000 </r>
       <r>   -17.7646     0.0000     2.0000 </r>
       <r>   -17.6388     0.0000     2.0000 </r>
       <r>   -17.5131     0.0000     2.0000 </r>
       <r>   -17.3873     0.0000     2.0000 </r>
       <r>   -17.2615     0.0000     2.0000 </r>
       <r>   -17.1358     0.0000     2.0000 </r>
       <r>   -17.0100     0.0000     2.0000 </r>
       <r>   -16.8843     0.0000     2.0000 </r>
       <r>   -16.7585     0.0000     2.0000 </r>
       <r>   -16.6327     0.0000     2.0000 </r>
       <r>   -16.5070     0.0000     2.0000 </r>
       <r>   -16.3812     0.0000     2.0000 </r>
       <r>   -16.2555     0.0000     2.0000 </r>
       <r>   -16.1297     0.0000     2.0000 </r>
       <r>   -16.0039     0.0000     2.0000 </r>
       <r>   -15.8782     0.0000     2.0000 </r>
       <r>   -15.7524     0.0000     2.0000 </r>
       <r>   -15.6266     0.0000     2.0000 </r>
       <r>   -15.5009     0.0000     2.0000 </r>
       <r>   -15.3751     0.0000     2.0000 </r>
       <r>   -15.2494     0.0000     2.0000 </r>
       <r>   -15.1236     0.0000     2.0000 </r>
       <r>   -14.9978     0.0000     2.0000 </r>
       <r>   -14.8721     0.0000     2.0000 </r>
       <r>   -14.7463     0.0000     2.0000 </r>
       <r>   -14.6206     0.0000     2.0000 </r>
       <r>   -14.4948     0.0000     2.0000 </r>
       <r>   -14.3690     0.0000     2.0000 </r>
       <r>   -14.2433     0.0000     2.0000 </r>
       <r>   -14.1175     0.0003     2.0000 </r>
       <r>   -13.9918     0.0081     2.0011 </r>
       <r>   -13.8660     0.1245     2.0167 </r>
       <r>   -13.7402     0.9502     2.1362 </r>
       <r>   -13.6145     3.6663     2.5973 </r>
       <r>   -13.4887     7.2140     3.5045 </r>
       <r>   -13.3630     7.2239     4.4130 </r>
       <r>   -13.2372     3.6411     4.8709 </r>
       <r>   -13.1114     0.9092     4.9853 </r>
       <r>   -12.9857     0.1106     4.9992 </r>
       <r>   -12.8599     0.0065     5.0000 </r>
       <r>   -12.7342     0.0002     5.0000 </r>
       <r>   -12.6084     0.0000     5.0000 </r>
       <r>   -12.4826     0.0000     5.0000 </r>
       <r>   -12.3569     0.0000     5.0000 </r>
       <r>   -12.2311     0.0000     5.0000 </r>
       <r>   -12.1053     0.0000     5.0000 </r>
       <r>   -11.9796     0.0000     5.0000 </r>
       <r>   -11.8538     0.0000     5.0000 </r>
       <r>   -11.7281     0.0000     5.0000 </r>
       <r>   -11.6023     0.0000     5.0000 </r>
       <r>   -11.4765     0.0000     5.0000 </r>
       <r>   -11.3508     0.0000     5.0000 </r>
       <r>   -11.2250     0.0000     5.0000 </r>
       <r>   -11.0993     0.0000     5.0000 </r>
       <r>   -10.9735     0.0000     5.0000 </r>
       <r>   -10.8477     0.0000     5.0000 </r>
       <r>   -10.7220     0.0000     5.0000 </r>
       <r>   -10.5962     0.0000     5.0000 </r>
       <r>   -10.4705     0.0000     5.0000 </r>
       <r>   -10.3447     0.0000     5.0000 </r>
       <r>   -10.2189     0.0000     5.0000 </r>
       <r>   -10.0932     0.0000     5.0000 </r>
       <r>    -9.9674     0.0000     5.0000 </r>
       <r>    -9.8417     0.0000     5.0000 </r>
       <r>    -9.7159     0.0000     5.0000 </r>
       <r>    -9.5901     0.0000     5.0000 </r>
       <r>    -9.4644     0.0000     5.0000 </r>
       <r>    -9.3386     0.0000     5.0000 </r>
       <r>    -9.2128     0.0000     5.0000 </r>
       <r>    -9.0871     0.0000     5.0000 </r>
       <r>    -8.9613     0.0000     5.0000 </r>
       <r>    -8.8356     0.0000     5.0000 </r>
       <r>    -8.7098     0.0000     5.0000 </r>
       <r>    -8.5840     0.0000     5.0000 </r>
       <r>    -8.4583     0.0000     5.0000 </r>
       <r>    -8.3325     0.0000     5.0000 </r>
       <r>    -8.2068     0.0000     5.0000 </r>
       <r>    -8.0810     0.0000     5.0000 </r>
       <r>    -7.9552     0.0000     5.0000 </r>
       <r>    -7.8295     0.0000     5.0000 </r>
       <r>    -7.7037     0.0000     5.0000 </r>
       <r>    -7.5780     0.0003     5.0000 </r>
       <r>    -7.4522     0.0086     5.0011 </r>
       <r>    -7.3264     0.1328     5.0178 </r>
       <r>    -7.2007     0.9623     5.1388 </r>
       <r>    -7.0749     3.3060     5.5546 </r>
       <r>    -6.9492     5.4070     6.2346 </r>
       <r>    -6.8234     4.2178     6.7650 </r>
       <r>    -6.6976     1.5677     6.9622 </r>
       <r>    -6.5719     0.2767     6.9970 </r>
       <r>    -6.4461     0.0231     6.9999 </r>
       <r>    -6.3204     0.0009     7.0000 </r>
       <r>    -6.1946     0.0000     7.0000 </r>
       <r>    -6.0688     0.0000     7.0000 </r>
       <r>    -5.9431     0.0000     7.0000 </r>
       <r>    -5.8173     0.0000     7.0000 </r>
       <r>    -5.6915     0.0000     7.0000 </r>
       <r>    -5.5658     0.0000     7.0000 </r>
       <r>    -5.4400     0.0000     7.0000 </r>
       <r>    -5.3143     0.0000     7.0000 </r>
       <r>    -5.1885     0.0000     7.0000 </r>
       <r>    -5.0627     0.0000     7.0000 </r>
       <r>    -4.9370     0.0000     7.0000 </r>
       <r>    -4.8112     0.0000     7.0000 </r>
       <r>    -4.6855     0.0000     7.0000 </r>
       <r>    -4.5597     0.0000     7.0000 </r>
       <r>    -4.4339     0.0000     7.0000 </r>
       <r>    -4.3082     0.0000     7.0000 </r>
       <r>    -4.1824     0.0000     7.0000 </r>
       <r>    -4.0567     0.0000     7.0000 </r>
       <r>    -3.9309     0.0000     7.0000 </r>
       <r>    -3.8051     0.0000     7.0000 </r>
       <r>    -3.6794     0.0000     7.0000 </r>
       <r>    -3.5536     0.0000     7.0000 </r>
       <r>    -3.4279     0.0000     7.0000 </r>
       <r>    -3.3021     0.0000     7.0000 </r>
       <r>    -3.1763     0.0000     7.0000 </r>
       <r>    -3.0506     0.0000     7.0000 </r>
       <r>    -2.9248     0.0000     7.0000 </r>
       <r>    -2.7990     0.0000     7.0000 </r>
       <r>    -2.6733     0.0000     7.0000 </r>
       <r>    -2.5475     0.0000     7.0000 </r>
       <r>    -2.4218     0.0000     7.0000 </r>
       <r>    -2.2960     0.0000     7.0000 </r>
       <r>    -2.1702     0.0000     7.0000 </r>
       <r>    -2.0445     0.0000     7.0000 </r>
       <r>    -1.9187     0.0000     7.0000 </r>
       <r>    -1.7930     0.0000     7.0000 </r>
       <r>    -1.6672     0.0000     7.0000 </r>
       <r>    -1.5414     0.0000     7.0000 </r>
       <r>    -1.4157     0.0000     7.0000 </r>
       <r>    -1.2899     0.0000     7.0000 </r>
       <r>    -1.1642     0.0000     7.0000 </r>
       <r>    -1.0384     0.0000     7.0000 </r>
       <r>    -0.9126     0.0000     7.0000 </r>
       <r>    -0.7869     0.0002     7.0000 </r>
       <r>    -0.6611     0.0057     7.0007 </r>
       <r>    -0.5354     0.0815     7.0110 </r>
       <r>    -0.4096     0.5542     7.0807 </r>
       <r>    -0.2838     1.8077     7.3080 </r>
       <r>    -0.1581     3.0260     7.6886 </r>
       <r>    -0.0323     3.6339     8.1456 </r>
       <r>     0.0935     5.9793     8.8975 </r>
       <r>     0.2192    11.2911    10.3175 </r>
       <r>     0.3450    16.0427    12.3351 </r>
       <r>     0.4707    16.9389    14.4653 </r>
       <r>     0.5965    16.7279    16.5690 </r>
       <r>     0.7223    14.8973    18.4425 </r>
       <r>     0.8480     8.8468    19.5551 </r>
       <r>     0.9738     2.9633    19.9278 </r>
       <r>     1.0995     0.5248    19.9938 </r>
       <r>     1.2253     0.0474    19.9997 </r>
       <r>     1.3511     0.0021    20.0000 </r>
       <r>     1.4768     0.0000    20.0000 </r>
       <r>     1.6026     0.0000    20.0000 </r>
       <r>     1.7283     0.0000    20.0000 </r>
       <r>     1.8541     0.0000    20.0000 </r>
       <r>     1.9799     0.0000    20.0000 </r>
       <r>     2.1056     0.0000    20.0000 </r>
       <r>     2.2314     0.0000    20.0000 </r>
       <r>     2.3571     0.0000    20.0000 </r>
       <r>     2.4829     0.0000    20.0000 </r>
       <r>     2.6087     0.0000    20.0000 </r>
       <r>     2.7344     0.0000    20.0000 </r>
      </set>
      <set comment="spin 2">
       <r>   -34.9938     0.0000     0.0000 </r>
       <r>   -34.8680     0.0000     0.0000 </r>
       <r>   -34.7423     0.0000     0.0000 </r>
       <r>   -34.6165     0.0000     0.0000 </r>
       <r>   -34.4908     0.0000     0.0000 </r>
       <r>   -34.3650     0.0000     0.0000 </r>
       <r>   -34.2392     0.0000     0.0000 </r>
       <r>   -34.1135     0.0000     0.0000 </r>
       <r>   -33.9877     0.0000     0.0000 </r>
       <r>   -33.8620     0.0000     0.0000 </r>
       <r>   -33.7362     0.0000     0.0000 </r>
       <r>   -33.6104     0.0000     0.0000 </r>
       <r>   -33.4847     0.0000     0.0000 </r>
       <r>   -33.3589     0.0000     0.0000 </r>
       <r>   -33.2332     0.0000     0.0000 </r>
       <r>   -33.1074     0.0000     0.0000 </r>
       <r>   -32.9816     0.0000     0.0000 </r>
       <r>   -32.8559     0.0000     0.0000 </r>
       <r>   -32.7301     0.0000     0.0000 </r>
       <r>   -32.6044     0.0000     0.0000 </r>
       <r>   -32.4786     0.0000     0.0000 </r>
       <r>   -32.3528     0.0002     0.0000 </r>
       <r>   -32.2271     0.0069     0.0009 </r>
       <r>   -32.1013     0.0949     0.0128 </r>
       <r>   -31.9756     0.6123     0.0898 </r>
       <r>   -31.8498     1.8736     0.3255 </r>
       <r>   -31.7240     2.7306     0.6689 </r>
       <r>   -31.5983     1.8982     0.9076 </r>
       <r>   -31.4725     0.6285     0.9866 </r>
       <r>   -31.3467     0.0987     0.9990 </r>
       <r>   -31.2210     0.0073     1.0000 </r>
       <r>   -31.0952     0.0003     1.0000 </r>
       <r>   -30.9695     0.0000     1.0000 </r>
       <r>   -30.8437     0.0000     1.0000 </r>
       <r>   -30.7179     0.0000     1.0000 </r>
       <r>   -30.5922     0.0000     1.0000 </r>
       <r>   -30.4664     0.0000     1.0000 </r>
       <r>   -30.3407     0.0000     1.0000 </r>
       <r>   -30.2149     0.0000     1.0000 </r>
       <r>   -30.0891     0.0000     1.0000 </r>
       <r>   -29.9634     0.0000     1.0000 </r>
       <r>   -29.8376     0.0000     1.0000 </r>
       <r>   -29.7119     0.0000     1.0000 </r>
       <r>   -29.5861     0.0000     1.0000 </r>
       <r>   -29.4603     0.0000     1.0000 </r>
       <r>   -29.3346     0.0000     1.0000 </r>
       <r>   -29.2088     0.0000     1.0000 </r>
       <r>   -29.0831     0.0000     1.0000 </r>
       <r>   -28.9573     0.0000     1.0000 </r>
       <r>   -28.8315     0.0000     1.0000 </r>
       <r>   -28.7058     0.0000     1.0000 </r>
       <r>   -28.5800     0.0000     1.0000 </r>
       <r>   -28.4542     0.0000     1.0000 </r>
       <r>   -28.3285     0.0000     1.0000 </r>
       <r>   -28.2027     0.0000     1.0000 </r>
       <r>   -28.0770     0.0000     1.0000 </r>
       <r>   -27.9512     0.0000     1.0000 </r>
       <r>   -27.8254     0.0000     1.0000 </r>
       <r>   -27.6997     0.0000     1.0000 </r>
       <r>   -27.5739     0.0000     1.0000 </r>
       <r>   -27.4482     0.0000     1.0000 </r>
       <r>   -27.3224     0.0000     1.0000 </r>
       <r>   -27.1966     0.0000     1.0000 </r>
       <r>   -27.0709     0.0000     1.0000 </r>
       <r>   -26.9451     0.0000     1.0000 </r>
       <r>   -26.8194     0.0000     1.0000 </r>
       <r>   -26.6936     0.0000     1.0000 </r>
       <r>   -26.5678     0.0000     1.0000 </r>
       <r>   -26.4421     0.0000     1.0000 </r>
       <r>   -26.3163     0.0000     1.0000 </r>
       <r>   -26.1906     0.0000     1.0000 </r>
       <r>   -26.0648     0.0000     1.0000 </r>
       <r>   -25.9390     0.0000     1.0000 </r>
       <r>   -25.8133     0.0000     1.0000 </r>
       <r>   -25.6875     0.0000     1.0000 </r>
       <r>   -25.5618     0.0000     1.0000 </r>
       <r>   -25.4360     0.0000     1.0000 </r>
       <r>   -25.3102     0.0000     1.0000 </r>
       <r>   -25.1845     0.0000     1.0000 </r>
       <r>   -25.0587     0.0000     1.0000 </r>
       <r>   -24.9329     0.0000     1.0000 </r>
       <r>   -24.8072     0.0000     1.0000 </r>
       <r>   -24.6814     0.0000     1.0000 </r>
       <r>   -24.5557     0.0000     1.0000 </r>
       <r>   -24.4299     0.0000     1.0000 </r>
       <r>   -24.3041     0.0000     1.0000 </r>
       <r>   -24.1784     0.0000     1.0000 </r>
       <r>   -24.0526     0.0000     1.0000 </r>
       <r>   -23.9269     0.0000     1.0000 </r>
       <r>   -23.8011     0.0000     1.0000 </r>
       <r>   -23.6753     0.0000     1.0000 </r>
       <r>   -23.5496     0.0000     1.0000 </r>
       <r>   -23.4238     0.0000     1.0000 </r>
       <r>   -23.2981     0.0000     1.0000 </r>
       <r>   -23.1723     0.0000     1.0000 </r>
       <r>   -23.0465     0.0000     1.0000 </r>
       <r>   -22.9208     0.0000     1.0000 </r>
       <r>   -22.7950     0.0000     1.0000 </r>
       <r>   -22.6693     0.0000     1.0000 </r>
       <r>   -22.5435     0.0000     1.0000 </r>
       <r>   -22.4177     0.0000     1.0000 </r>
       <r>   -22.2920     0.0000     1.0000 </r>
       <r>   -22.1662     0.0000     1.0000 </r>
       <r>   -22.0404     0.0000     1.0000 </r>
       <r>   -21.9147     0.0000     1.0000 </r>
       <r>   -21.7889     0.0000     1.0000 </r>
       <r>   -21.6632     0.0000     1.0000 </r>
       <r>   -21.5374     0.0000     1.0000 </r>
       <r>   -21.4116     0.0000     1.0000 </r>
       <r>   -21.2859     0.0000     1.0000 </r>
       <r>   -21.1601     0.0000     1.0000 </r>
       <r>   -21.0344     0.0000     1.0000 </r>
       <r>   -20.9086     0.0000     1.0000 </r>
       <r>   -20.7828     0.0000     1.0000 </r>
       <r>   -20.6571     0.0000     1.0000 </r>
       <r>   -20.5313     0.0000     1.0000 </r>
       <r>   -20.4056     0.0000     1.0000 </r>
       <r>   -20.2798     0.0000     1.0000 </r>
       <r>   -20.1540     0.0000     1.0000 </r>
       <r>   -20.0283     0.0000     1.0000 </r>
       <r>   -19.9025     0.0000     1.0000 </r>
       <r>   -19.7768     0.0000     1.0000 </r>
       <r>   -19.6510     0.0000     1.0000 </r>
       <r>   -19.5252     0.0008     1.0001 </r>
       <r>   -19.3995     0.0189     1.0025 </r>
       <r>   -19.2737     0.1983     1.0274 </r>
       <r>   -19.1480     0.9849     1.1513 </r>
       <r>   -19.0222     2.3249     1.4437 </r>
       <r>   -18.8964     2.6159     1.7726 </r>
       <r>   -18.7707     1.4037     1.9492 </r>
       <r>   -18.6449     0.3583     1.9942 </r>
       <r>   -18.5191     0.0433     1.9997 </r>
       <r>   -18.3934     0.0025     2.0000 </r>
       <r>   -18.2676     0.0001     2.0000 </r>
       <r>   -18.1419     0.0000     2.0000 </r>
       <r>   -18.0161     0.0000     2.0000 </r>
       <r>   -17.8903     0.0000     2.0000 </r>
       <r>   -17.7646     0.0000     2.0000 </r>
       <r>   -17.6388     0.0000     2.0000 </r>
       <r>   -17.5131     0.0000     2.0000 </r>
       <r>   -17.3873     0.0000     2.0000 </r>
       <r>   -17.2615     0.0000     2.0000 </r>
       <r>   -17.1358     0.0000     2.0000 </r>
       <r>   -17.0100     0.0000     2.0000 </r>
       <r>   -16.8843     0.0000     2.0000 </r>
       <r>   -16.7585     0.0000     2.0000 </r>
       <r>   -16.6327     0.0000     2.0000 </r>
       <r>   -16.5070     0.0000     2.0000 </r>
       <r>   -16.3812     0.0000     2.0000 </r>
       <r>   -16.2555     0.0000     2.0000 </r>
       <r>   -16.1297     0.0000     2.0000 </r>
       <r>   -16.0039     0.0000     2.0000 </r>
       <r>   -15.8782     0.0000     2.0000 </r>
       <r>   -15.7524     0.0000     2.0000 </r>
       <r>   -15.6266     0.0000     2.0000 </r>
       <r>   -15.5009     0.0000     2.0000 </r>
       <r>   -15.3751     0.0000     2.0000 </r>
       <r>   -15.2494     0.0000     2.0000 </r>
       <r>   -15.1236     0.0000     2.0000 </r>
       <r>   -14.9978     0.0000     2.0000 </r>
       <r>   -14.8721     0.0000     2.0000 </r>
       <r>   -14.7463     0.0000     2.0000 </r>
       <r>   -14.6206     0.0000     2.0000 </r>
       <r>   -14.4948     0.0000     2.0000 </r>
       <r>   -14.3690     0.0000     2.0000 </r>
       <r>   -14.2433     0.0000     2.0000 </r>
       <r>   -14.1175     0.0000     2.0000 </r>
       <r>   -13.9918     0.0000     2.0000 </r>
       <r>   -13.8660     0.0000     2.0000 </r>
       <r>   -13.7402     0.0000     2.0000 </r>
       <r>   -13.6145     0.0000     2.0000 </r>
       <r>   -13.4887     0.0000     2.0000 </r>
       <r>   -13.3630     0.0000     2.0000 </r>
       <r>   -13.2372     0.0001     2.0000 </r>
       <r>   -13.1114     0.0037     2.0005 </r>
       <r>   -12.9857     0.0594     2.0080 </r>
       <r>   -12.8599     0.4459     2.0640 </r>
       <r>   -12.7342     1.5862     2.2635 </r>
       <r>   -12.6084     2.6859     2.6013 </r>
       <r>   -12.4826     2.1692     2.8741 </r>
       <r>   -12.3569     0.8348     2.9791 </r>
       <r>   -12.2311     0.1526     2.9983 </r>
       <r>   -12.1053     0.0160     3.0003 </r>
       <r>   -11.9796     0.0566     3.0074 </r>
       <r>   -11.8538     0.5270     3.0737 </r>
       <r>   -11.7281     2.3442     3.3685 </r>
       <r>   -11.6023     4.9578     3.9920 </r>
       <r>   -11.4765     4.9994     4.6207 </r>
       <r>   -11.3508     2.4037     4.9230 </r>
       <r>   -11.2250     0.5495     4.9921 </r>
       <r>   -11.0993     0.0595     4.9996 </r>
       <r>   -10.9735     0.0030     5.0000 </r>
       <r>   -10.8477     0.0001     5.0000 </r>
       <r>   -10.7220     0.0000     5.0000 </r>
       <r>   -10.5962     0.0000     5.0000 </r>
       <r>   -10.4705     0.0000     5.0000 </r>
       <r>   -10.3447     0.0000     5.0000 </r>
       <r>   -10.2189     0.0000     5.0000 </r>
       <r>   -10.0932     0.0000     5.0000 </r>
       <r>    -9.9674     0.0000     5.0000 </r>
       <r>    -9.8417     0.0000     5.0000 </r>
       <r>    -9.7159     0.0000     5.0000 </r>
       <r>    -9.5901     0.0000     5.0000 </r>
       <r>    -9.4644     0.0000     5.0000 </r>
       <r>    -9.3386     0.0000     5.0000 </r>
       <r>    -9.2128     0.0000     5.0000 </r>
       <r>    -9.0871     0.0000     5.0000 </r>
       <r>    -8.9613     0.0000     5.0000 </r>
       <r>    -8.8356     0.0000     5.0000 </r>
       <r>    -8.7098     0.0000     5.0000 </r>
       <r>    -8.5840     0.0000     5.0000 </r>
       <r>    -8.4583     0.0000     5.0000 </r>
       <r>    -8.3325     0.0000     5.0000 </r>
       <r>    -8.2068     0.0000     5.0000 </r>
       <r>    -8.0810     0.0000     5.0000 </r>
       <r>    -7.9552     0.0000     5.0000 </r>
       <r>    -7.8295     0.0000     5.0000 </r>
       <r>    -7.7037     0.0000     5.0000 </r>
       <r>    -7.5780     0.0000     5.0000 </r>
       <r>    -7.4522     0.0000     5.0000 </r>
       <r>    -7.3264     0.0000     5.0000 </r>
       <r>    -7.2007     0.0000     5.0000 </r>
       <r>    -7.0749     0.0000     5.0000 </r>
       <r>    -6.9492     0.0000     5.0000 </r>
       <r>    -6.8234     0.0000     5.0000 </r>
       <r>    -6.6976     0.0000     5.0000 </r>
       <r>    -6.5719     0.0000     5.0000 </r>
       <r>    -6.4461     0.0000     5.0000 </r>
       <r>    -6.3204     0.0000     5.0000 </r>
       <r>    -6.1946     0.0000     5.0000 </r>
       <r>    -6.0688     0.0000     5.0000 </r>
       <r>    -5.9431     0.0000     5.0000 </r>
       <r>    -5.8173     0.0000     5.0000 </r>
       <r>    -5.6915     0.0000     5.0000 </r>
       <r>    -5.5658     0.0000     5.0000 </r>
       <r>    -5.4400     0.0000     5.0000 </r>
       <r>    -5.3143     0.0001     5.0000 </r>
       <r>    -5.1885     0.0037     5.0005 </r>
       <r>    -5.0627     0.0698     5.0093 </r>
       <r>    -4.9370     0.6159     5.0867 </r>
       <r>    -4.8112     2.5715     5.4101 </r>
       <r>    -4.6855     5.1062     6.0523 </r>
       <r>    -4.5597     4.8351     6.6603 </r>
       <r>    -4.4339     2.1827     6.9348 </r>
       <r>    -4.3082     0.4684     6.9937 </r>
       <r>    -4.1824     0.0475     6.9997 </r>
       <r>    -4.0567     0.0023     7.0000 </r>
       <r>    -3.9309     0.0001     7.0000 </r>
       <r>    -3.8051     0.0000     7.0000 </r>
       <r>    -3.6794     0.0000     7.0000 </r>
       <r>    -3.5536     0.0000     7.0000 </r>
       <r>    -3.4279     0.0000     7.0000 </r>
       <r>    -3.3021     0.0000     7.0000 </r>
       <r>    -3.1763     0.0000     7.0000 </r>
       <r>    -3.0506     0.0000     7.0000 </r>
       <r>    -2.9248     0.0000     7.0000 </r>
       <r>    -2.7990     0.0000     7.0000 </r>
       <r>    -2.6733     0.0000     7.0000 </r>
       <r>    -2.5475     0.0000     7.0000 </r>
       <r>    -2.4218     0.0000     7.0000 </r>
       <r>    -2.2960     0.0000     7.0000 </r>
       <r>    -2.1702     0.0000     7.0000 </r>
       <r>    -2.0445     0.0000     7.0000 </r>
       <r>    -1.9187     0.0000     7.0000 </r>
       <r>    -1.7930     0.0000     7.0000 </r>
       <r>    -1.6672     0.0000     7.0000 </r>
       <r>    -1.5414     0.0000     7.0000 </r>
       <r>    -1.4157     0.0000     7.0000 </r>
       <r>    -1.2899     0.0000     7.0000 </r>
       <r>    -1.1642     0.0000     7.0000 </r>
       <r>    -1.0384     0.0000     7.0000 </r>
       <r>    -0.9126     0.0000     7.0000 </r>
       <r>    -0.7869     0.0000     7.0000 </r>
       <r>    -0.6611     0.0006     7.0001 </r>
       <r>    -0.5354     0.0142     7.0019 </r>
       <r>    -0.4096     0.1618     7.0222 </r>
       <r>    -0.2838     0.8748     7.1322 </r>
       <r>    -0.1581     2.3341     7.4258 </r>
       <r>    -0.0323     3.6204     7.8811 </r>
       <r>     0.0935     5.4555     8.5672 </r>
       <r>     0.2192    10.3288     9.8661 </r>
       <r>     0.3450    15.7245    11.8436 </r>
       <r>     0.4707    16.8183    13.9587 </r>
       <r>     0.5965    16.6733    16.0556 </r>
       <r>     0.7223    16.1238    18.0833 </r>
       <r>     0.8480    10.5939    19.4156 </r>
       <r>     0.9738     3.8498    19.8998 </r>
       <r>     1.0995     0.7250    19.9909 </r>
       <r>     1.2253     0.0687    19.9996 </r>
       <r>     1.3511     0.0032    20.0000 </r>
       <r>     1.4768     0.0001    20.0000 </r>
       <r>     1.6026     0.0000    20.0000 </r>
       <r>     1.7283     0.0000    20.0000 </r>
       <r>     1.8541     0.0000    20.0000 </r>
       <r>     1.9799     0.0000    20.0000 </r>
       <r>     2.1056     0.0000    20.0000 </r>
       <r>     2.2314     0.0000    20.0000 </r>
       <r>     2.3571     0.0000    20.0000 </r>
       <r>     2.4829     0.0000    20.0000 </r>
       <r>     2.6087     0.0000    20.0000 </r>
       <r>     2.7344     0.0000    20.0000 </r>
      </set>
     </set>
    </array>
   </total>
   <partial>
    <array>
     <dimension dim="1">gridpoints</dimension>
     <dimension dim="2">spin</dimension>
     <dimension dim="3">ion</dimension>
     <field>energy</field>
     <field>  s  </field>
     <field>  p  </field>
     <field>  d  </field>
     <set>
      <set comment="ion 1">
       <set comment="spin 1">
        <r>   -34.9938     0.0000     0.0000     0.0000 </r>
        <r>   -34.8680     0.0000     0.0000     0.0000 </r>
        <r>   -34.7423     0.0000     0.0000     0.0000 </r>
        <r>   -34.6165     0.0000     0.0000     0.0000 </r>
        <r>   -34.4908     0.0000     0.0000     0.0000 </r>
        <r>   -34.3650     0.0000     0.0000     0.0000 </r>
        <r>   -34.2392     0.0000     0.0000     0.0000 </r>
        <r>   -34.1135     0.0000     0.0000     0.0000 </r>
        <r>   -33.9877     0.0000     0.0000     0.0000 </r>
        <r>   -33.8620     0.0000     0.0000     0.0000 </r>
        <r>   -33.7362     0.0000     0.0000     0.0000 </r>
        <r>   -33.6104     0.0000     0.0000     0.0000 </r>
        <r>   -33.4847     0.0008     0.0002     0.0000 </r>
        <r>   -33.3589     0.0141     0.0037     0.0000 </r>
        <r>   -33.2332     0.1221     0.0325     0.0000 </r>
        <r>   -33.1074     0.5011     0.1334     0.0000 </r>
        <r>   -32.9816     0.9781     0.2604     0.0000 </r>
        <r>   -32.8559     0.9105     0.2424     0.0000 </r>
        <r>   -32.7301     0.4040     0.1076     0.0000 </r>
        <r>   -32.6044     0.0852     0.0227     0.0000 </r>
        <r>   -32.4786     0.0085     0.0023     0.0000 </r>
        <r>   -32.3528     0.0004     0.0001     0.0000 </r>
        <r>   -32.2271     0.0000     0.0000     0.0000 </r>
        <r>   -32.1013     0.0000     0.0000     0.0000 </r>
        <r>   -31.9756     0.0000     0.0000     0.0000 </r>
        <r>   -31.8498     0.0000     0.0000     0.0000 </r>
        <r>   -31.7240     0.0000     0.0000     0.0000 </r>
        <r>   -31.5983     0.0000     0.0000     0.0000 </r>
        <r>   -31.4725     0.0000     0.0000     0.0000 </r>
        <r>   -31.3467     0.0000     0.0000     0.0000 </r>
        <r>   -31.2210     0.0000     0.0000     0.0000 </r>
        <r>   -31.0952     0.0000     0.0000     0.0000 </r>
        <r>   -30.9695     0.0000     0.0000     0.0000 </r>
        <r>   -30.8437     0.0000     0.0000     0.0000 </r>
        <r>   -30.7179     0.0000     0.0000     0.0000 </r>
        <r>   -30.5922     0.0000     0.0000     0.0000 </r>
        <r>   -30.4664     0.0000     0.0000     0.0000 </r>
        <r>   -30.3407     0.0000     0.0000     0.0000 </r>
        <r>   -30.2149     0.0000     0.0000     0.0000 </r>
        <r>   -30.0891     0.0000     0.0000     0.0000 </r>
        <r>   -29.9634     0.0000     0.0000     0.0000 </r>
        <r>   -29.8376     0.0000     0.0000     0.0000 </r>
        <r>   -29.7119     0.0000     0.0000     0.0000 </r>
        <r>   -29.5861     0.0000     0.0000     0.0000 </r>
        <r>   -29.4603     0.0000     0.0000     0.0000 </r>
        <r>   -29.3346     0.0000     0.0000     0.0000 </r>
        <r>   -29.2088     0.0000     0.0000     0.0000 </r>
        <r>   -29.0831     0.0000     0.0000     0.0000 </r>
        <r>   -28.9573     0.0000     0.0000     0.0000 </r>
        <r>   -28.8315     0.0000     0.0000     0.0000 </r>
        <r>   -28.7058     0.0000     0.0000     0.0000 </r>
        <r>   -28.5800     0.0000     0.0000     0.0000 </r>
        <r>   -28.4542     0.0000     0.0000     0.0000 </r>
        <r>   -28.3285     0.0000     0.0000     0.0000 </r>
        <r>   -28.2027     0.0000     0.0000     0.0000 </r>
        <r>   -28.0770     0.0000     0.0000     0.0000 </r>
        <r>   -27.9512     0.0000     0.0000     0.0000 </r>
        <r>   -27.8254     0.0000     0.0000     0.0000 </r>
        <r>   -27.6997     0.0000     0.0000     0.0000 </r>
        <r>   -27.5739     0.0000     0.0000     0.0000 </r>
        <r>   -27.4482     0.0000     0.0000     0.0000 </r>
        <r>   -27.3224     0.0000     0.0000     0.0000 </r>
        <r>   -27.1966     0.0000     0.0000     0.0000 </r>
        <r>   -27.0709     0.0000     0.0000     0.0000 </r>
        <r>   -26.9451     0.0000     0.0000     0.0000 </r>
        <r>   -26.8194     0.0000     0.0000     0.0000 </r>
        <r>   -26.6936     0.0000     0.0000     0.0000 </r>
        <r>   -26.5678     0.0000     0.0000     0.0000 </r>
        <r>   -26.4421     0.0000     0.0000     0.0000 </r>
        <r>   -26.3163     0.0000     0.0000     0.0000 </r>
        <r>   -26.1906     0.0000     0.0000     0.0000 </r>
        <r>   -26.0648     0.0000     0.0000     0.0000 </r>
        <r>   -25.9390     0.0000     0.0000     0.0000 </r>
        <r>   -25.8133     0.0000     0.0000     0.0000 </r>
        <r>   -25.6875     0.0000     0.0000     0.0000 </r>
        <r>   -25.5618     0.0000     0.0000     0.0000 </r>
        <r>   -25.4360     0.0000     0.0000     0.0000 </r>
        <r>   -25.3102     0.0000     0.0000     0.0000 </r>
        <r>   -25.1845     0.0000     0.0000     0.0000 </r>
        <r>   -25.0587     0.0000     0.0000     0.0000 </r>
        <r>   -24.9329     0.0000     0.0000     0.0000 </r>
        <r>   -24.8072     0.0000     0.0000     0.0000 </r>
        <r>   -24.6814     0.0000     0.0000     0.0000 </r>
        <r>   -24.5557     0.0000     0.0000     0.0000 </r>
        <r>   -24.4299     0.0000     0.0000     0.0000 </r>
        <r>   -24.3041     0.0000     0.0000     0.0000 </r>
        <r>   -24.1784     0.0000     0.0000     0.0000 </r>
        <r>   -24.0526     0.0000     0.0000     0.0000 </r>
        <r>   -23.9269     0.0000     0.0000     0.0000 </r>
        <r>   -23.8011     0.0000     0.0000     0.0000 </r>
        <r>   -23.6753     0.0000     0.0000     0.0000 </r>
        <r>   -23.5496     0.0000     0.0000     0.0000 </r>
        <r>   -23.4238     0.0000     0.0000     0.0000 </r>
        <r>   -23.2981     0.0000     0.0000     0.0000 </r>
        <r>   -23.1723     0.0000     0.0000     0.0000 </r>
        <r>   -23.0465     0.0000     0.0000     0.0000 </r>
        <r>   -22.9208     0.0000     0.0000     0.0000 </r>
        <r>   -22.7950     0.0000     0.0000     0.0000 </r>
        <r>   -22.6693     0.0000     0.0000     0.0000 </r>
        <r>   -22.5435     0.0000     0.0000     0.0000 </r>
        <r>   -22.4177     0.0000     0.0000     0.0000 </r>
[...]
        <r>   -21.1601     0.0000     0.0000     0.0000 </r>
        <r>   -21.0344     0.0000     0.0000     0.0000 </r>
        <r>   -20.9086     0.0000     0.0000     0.0000 </r>
        <r>   -20.7828     0.0000     0.0000     0.0000 </r>
        <r>   -20.6571     0.0000     0.0000     0.0000 </r>
        <r>   -20.5313     0.0000     0.0000     0.0000 </r>
        <r>   -20.4056     0.0000     0.0000     0.0000 </r>
        <r>   -20.2798     0.0000     0.0000     0.0000 </r>
        <r>   -20.1540     0.0000     0.0000     0.0000 </r>
        <r>   -20.0283     0.0000     0.0000     0.0000 </r>
        <r>   -19.9025     0.0000     0.0000     0.0000 </r>
        <r>   -19.7768     0.0000     0.0000     0.0000 </r>
        <r>   -19.6510     0.0000     0.0000     0.0000 </r>
        <r>   -19.5252     0.0003     0.0000     0.0000 </r>
        <r>   -19.3995     0.0066     0.0009     0.0000 </r>
        <r>   -19.2737     0.0691     0.0095     0.0000 </r>
        <r>   -19.1480     0.3434     0.0471     0.0000 </r>
        <r>   -19.0222     0.8106     0.1112     0.0000 </r>
        <r>   -18.8964     0.9120     0.1251     0.0000 </r>
        <r>   -18.7707     0.4894     0.0671     0.0000 </r>
        <r>   -18.6449     0.1249     0.0171     0.0000 </r>
        <r>   -18.5191     0.0151     0.0021     0.0000 </r>
        <r>   -18.3934     0.0009     0.0001     0.0000 </r>
        <r>   -18.2676     0.0000     0.0000     0.0000 </r>
        <r>   -18.1419     0.0000     0.0000     0.0000 </r>
        <r>   -18.0161     0.0000     0.0000     0.0000 </r>
        <r>   -17.8903     0.0000     0.0000     0.0000 </r>
        <r>   -17.7646     0.0000     0.0000     0.0000 </r>
        <r>   -17.6388     0.0000     0.0000     0.0000 </r>
        <r>   -17.5131     0.0000     0.0000     0.0000 </r>
        <r>   -17.3873     0.0000     0.0000     0.0000 </r>
        <r>   -17.2615     0.0000     0.0000     0.0000 </r>
        <r>   -17.1358     0.0000     0.0000     0.0000 </r>
        <r>   -17.0100     0.0000     0.0000     0.0000 </r>
        <r>   -16.8843     0.0000     0.0000     0.0000 </r>
        <r>   -16.7585     0.0000     0.0000     0.0000 </r>
        <r>   -16.6327     0.0000     0.0000     0.0000 </r>
        <r>   -16.5070     0.0000     0.0000     0.0000 </r>
        <r>   -16.3812     0.0000     0.0000     0.0000 </r>
        <r>   -16.2555     0.0000     0.0000     0.0000 </r>
        <r>   -16.1297     0.0000     0.0000     0.0000 </r>
        <r>   -16.0039     0.0000     0.0000     0.0000 </r>
        <r>   -15.8782     0.0000     0.0000     0.0000 </r>
        <r>   -15.7524     0.0000     0.0000     0.0000 </r>
        <r>   -15.6266     0.0000     0.0000     0.0000 </r>
        <r>   -15.5009     0.0000     0.0000     0.0000 </r>
        <r>   -15.3751     0.0000     0.0000     0.0000 </r>
        <r>   -15.2494     0.0000     0.0000     0.0000 </r>
        <r>   -15.1236     0.0000     0.0000     0.0000 </r>
        <r>   -14.9978     0.0000     0.0000     0.0000 </r>
        <r>   -14.8721     0.0000     0.0000     0.0000 </r>
        <r>   -14.7463     0.0000     0.0000     0.0000 </r>
        <r>   -14.6206     0.0000     0.0000     0.0000 </r>
        <r>   -14.4948     0.0000     0.0000     0.0000 </r>
        <r>   -14.3690     0.0000     0.0000     0.0000 </r>
        <r>   -14.2433     0.0000     0.0000     0.0000 </r>
        <r>   -14.1175     0.0000     0.0000     0.0000 </r>
        <r>   -13.9918     0.0000     0.0000     0.0000 </r>
        <r>   -13.8660     0.0000     0.0000     0.0000 </r>
        <r>   -13.7402     0.0000     0.0000     0.0000 </r>
        <r>   -13.6145     0.0000     0.0000     0.0000 </r>
        <r>   -13.4887     0.0000     0.0000     0.0000 </r>
        <r>   -13.3630     0.0000     0.0000     0.0000 </r>
        <r>   -13.2372     0.0000     0.0000     0.0000 </r>
        <r>   -13.1114     0.0002     0.0014     0.0000 </r>
        <r>   -12.9857     0.0027     0.0224     0.0000 </r>
        <r>   -12.8599     0.0201     0.1682     0.0000 </r>
        <r>   -12.7342     0.0716     0.5982     0.0000 </r>
        <r>   -12.6084     0.1212     1.0130     0.0000 </r>
        <r>   -12.4826     0.0979     0.8181     0.0000 </r>
        <r>   -12.3569     0.0377     0.3149     0.0000 </r>
        <r>   -12.2311     0.0069     0.0576     0.0000 </r>
        <r>   -12.1053     0.0006     0.0060     0.0000 </r>
        <r>   -11.9796     0.0000     0.0207     0.0000 </r>
        <r>   -11.8538     0.0000     0.1925     0.0000 </r>
        <r>   -11.7281     0.0000     0.8563     0.0000 </r>
        <r>   -11.6023     0.0000     1.8110     0.0000 </r>
        <r>   -11.4765     0.0000     1.8262     0.0000 </r>
        <r>   -11.3508     0.0000     0.8781     0.0000 </r>
        <r>   -11.2250     0.0000     0.2007     0.0000 </r>
        <r>   -11.0993     0.0000     0.0217     0.0000 </r>
        <r>   -10.9735     0.0000     0.0011     0.0000 </r>
        <r>   -10.8477     0.0000     0.0000     0.0000 </r>
        <r>   -10.7220     0.0000     0.0000     0.0000 </r>
        <r>   -10.5962     0.0000     0.0000     0.0000 </r>
        <r>   -10.4705     0.0000     0.0000     0.0000 </r>
        <r>   -10.3447     0.0000     0.0000     0.0000 </r>
        <r>   -10.2189     0.0000     0.0000     0.0000 </r>
        <r>   -10.0932     0.0000     0.0000     0.0000 </r>
        <r>    -9.9674     0.0000     0.0000     0.0000 </r>
        <r>    -9.8417     0.0000     0.0000     0.0000 </r>
        <r>    -9.7159     0.0000     0.0000     0.0000 </r>
        <r>    -9.5901     0.0000     0.0000     0.0000 </r>
        <r>    -9.4644     0.0000     0.0000     0.0000 </r>
        <r>    -9.3386     0.0000     0.0000     0.0000 </r>
        <r>    -9.2128     0.0000     0.0000     0.0000 </r>
        <r>    -9.0871     0.0000     0.0000     0.0000 </r>
        <r>    -8.9613     0.0000     0.0000     0.0000 </r>
        <r>    -8.8356     0.0000     0.0000     0.0000 </r>
        <r>    -8.7098     0.0000     0.0000     0.0000 </r>
        <r>    -8.5840     0.0000     0.0000     0.0000 </r>
        <r>    -8.4583     0.0000     0.0000     0.0000 </r>
        <r>    -8.3325     0.0000     0.0000     0.0000 </r>
        <r>    -8.2068     0.0000     0.0000     0.0000 </r>
        <r>    -8.0810     0.0000     0.0000     0.0000 </r>
        <r>    -7.9552     0.0000     0.0000     0.0000 </r>
        <r>    -7.8295     0.0000     0.0000     0.0000 </r>
        <r>    -7.7037     0.0000     0.0000     0.0000 </r>
        <r>    -7.5780     0.0000     0.0000     0.0000 </r>
        <r>    -7.4522     0.0000     0.0000     0.0000 </r>
        <r>    -7.3264     0.0000     0.0000     0.0000 </r>
        <r>    -7.2007     0.0000     0.0000     0.0000 </r>
        <r>    -7.0749     0.0000     0.0000     0.0000 </r>
        <r>    -6.9492     0.0000     0.0000     0.0000 </r>
        <r>    -6.8234     0.0000     0.0000     0.0000 </r>
        <r>    -6.6976     0.0000     0.0000     0.0000 </r>
        <r>    -6.5719     0.0000     0.0000     0.0000 </r>
        <r>    -6.4461     0.0000     0.0000     0.0000 </r>
        <r>    -6.3204     0.0000     0.0000     0.0000 </r>
        <r>    -6.1946     0.0000     0.0000     0.0000 </r>
        <r>    -6.0688     0.0000     0.0000     0.0000 </r>
        <r>    -5.9431     0.0000     0.0000     0.0000 </r>
        <r>    -5.8173     0.0000     0.0000     0.0000 </r>
        <r>    -5.6915     0.0000     0.0000     0.0000 </r>
        <r>    -5.5658     0.0000     0.0000     0.0000 </r>
        <r>    -5.4400     0.0000     0.0000     0.0000 </r>
        <r>    -5.3143     0.0000     0.0000     0.0000 </r>
        <r>    -5.1885     0.0000     0.0014     0.0000 </r>
        <r>    -5.0627     0.0000     0.0263     0.0000 </r>
        <r>    -4.9370     0.0000     0.2322     0.0000 </r>
        <r>    -4.8112     0.0000     0.9696     0.0000 </r>
        <r>    -4.6855     0.0000     1.9253     0.0000 </r>
        <r>    -4.5597     0.0000     1.8231     0.0000 </r>
        <r>    -4.4339     0.0000     0.8230     0.0000 </r>
        <r>    -4.3082     0.0000     0.1766     0.0000 </r>
        <r>    -4.1824     0.0000     0.0179     0.0000 </r>
        <r>    -4.0567     0.0000     0.0009     0.0000 </r>
        <r>    -3.9309     0.0000     0.0000     0.0000 </r>
        <r>    -3.8051     0.0000     0.0000     0.0000 </r>
        <r>    -3.6794     0.0000     0.0000     0.0000 </r>
        <r>    -3.5536     0.0000     0.0000     0.0000 </r>
        <r>    -3.4279     0.0000     0.0000     0.0000 </r>
        <r>    -3.3021     0.0000     0.0000     0.0000 </r>
        <r>    -3.1763     0.0000     0.0000     0.0000 </r>
        <r>    -3.0506     0.0000     0.0000     0.0000 </r>
        <r>    -2.9248     0.0000     0.0000     0.0000 </r>
        <r>    -2.7990     0.0000     0.0000     0.0000 </r>
        <r>    -2.6733     0.0000     0.0000     0.0000 </r>
        <r>    -2.5475     0.0000     0.0000     0.0000 </r>
        <r>    -2.4218     0.0000     0.0000     0.0000 </r>
        <r>    -2.2960     0.0000     0.0000     0.0000 </r>
        <r>    -2.1702     0.0000     0.0000     0.0000 </r>
        <r>    -2.0445     0.0000     0.0000     0.0000 </r>
        <r>    -1.9187     0.0000     0.0000     0.0000 </r>
        <r>    -1.7930     0.0000     0.0000     0.0000 </r>
        <r>    -1.6672     0.0000     0.0000     0.0000 </r>
        <r>    -1.5414     0.0000     0.0000     0.0000 </r>
        <r>    -1.4157     0.0000     0.0000     0.0000 </r>
        <r>    -1.2899     0.0000     0.0000     0.0000 </r>
        <r>    -1.1642     0.0000     0.0000     0.0000 </r>
        <r>    -1.0384     0.0000     0.0000     0.0000 </r>
        <r>    -0.9126     0.0000     0.0000     0.0000 </r>
        <r>    -0.7869     0.0000     0.0000     0.0000 </r>
        <r>    -0.6611     0.0000     0.0000     0.0000 </r>
        <r>    -0.5354     0.0000     0.0000     0.0000 </r>
        <r>    -0.4096     0.0004     0.0002     0.0000 </r>
        <r>    -0.2838     0.0021     0.0013     0.0000 </r>
        <r>    -0.1581     0.0057     0.0035     0.0000 </r>
        <r>    -0.0323     0.0084     0.0052     0.0000 </r>
        <r>     0.0935     0.0098     0.0059     0.0000 </r>
        <r>     0.2192     0.0111     0.0071     0.0000 </r>
        <r>     0.3450     0.0102     0.0076     0.0000 </r>
        <r>     0.4707     0.0096     0.0082     0.0000 </r>
        <r>     0.5965     0.0109     0.0107     0.0000 </r>
        <r>     0.7223     0.0085     0.0109     0.0000 </r>
        <r>     0.8480     0.0034     0.0063     0.0000 </r>
        <r>     0.9738     0.0007     0.0019     0.0000 </r>
        <r>     1.0995     0.0001     0.0003     0.0000 </r>
        <r>     1.2253     0.0000     0.0000     0.0000 </r>
        <r>     1.3511     0.0000     0.0000     0.0000 </r>
        <r>     1.4768     0.0000     0.0000     0.0000 </r>
        <r>     1.6026     0.0000     0.0000     0.0000 </r>
        <r>     1.7283     0.0000     0.0000     0.0000 </r>
        <r>     1.8541     0.0000     0.0000     0.0000 </r>
        <r>     1.9799     0.0000     0.0000     0.0000 </r>
        <r>     2.1056     0.0000     0.0000     0.0000 </r>
        <r>     2.2314     0.0000     0.0000     0.0000 </r>
        <r>     2.3571     0.0000     0.0000     0.0000 </r>
        <r>     2.4829     0.0000     0.0000     0.0000 </r>
        <r>     2.6087     0.0000     0.0000     0.0000 </r>
        <r>     2.7344     0.0000     0.0000     0.0000 </r>
       </set>
      </set>
     </set>
    </array>
   </partial>
  </dos>
  <projected>
   <eigenvalues>
    <array>
     <dimension dim="1">band</dimension>
     <dimension dim="2">kpoint</dimension>
     <dimension dim="3">spin</dimension>
     <field>eigene</field>
     <field>occ</field>
     <set>
      <set comment="spin 1">
       <set comment="kpoint 1">
        <r>  -32.9938    1.0000 </r>
        <r>  -20.7992    1.0000 </r>
        <r>  -13.5496    1.0000 </r>
        <r>  -13.4598    1.0000 </r>
        <r>  -13.4598    1.0000 </r>
        <r>   -6.9914    1.0000 </r>
        <r>   -6.9914    1.0000 </r>
        <r>   -0.2114    0.0000 </r>
        <r>    0.0964    0.0000 </r>
        <r>    0.2143    0.0000 </r>
        <r>    0.3091    0.0000 </r>
        <r>    0.3091    0.0000 </r>
        <r>    0.3292    0.0000 </r>
        <r>    0.3298    0.0000 </r>
        <r>    0.4991    0.0000 </r>
        <r>    0.5583    0.0000 </r>
        <r>    0.6239    0.0000 </r>
        <r>    0.6239    0.0000 </r>
        <r>    0.6775    0.0000 </r>
        <r>    0.7241    0.0000 </r>
       </set>
      </set>
      <set comment="spin 2">
       <set comment="kpoint 1">
        <r>  -31.7858    1.0000 </r>
        <r>  -19.0022    1.0000 </r>
        <r>  -12.6447    1.0000 </r>
        <r>  -11.6009    1.0000 </r>
        <r>  -11.6009    1.0000 </r>
        <r>   -4.6947    0.0000 </r>
        <r>   -4.6947    0.0000 </r>
        <r>   -0.1252    0.0000 </r>
        <r>    0.1472    0.0000 </r>
        <r>    0.2678    0.0000 </r>
        <r>    0.3334    0.0000 </r>
        <r>    0.3334    0.0000 </r>
        <r>    0.3428    0.0000 </r>
        <r>    0.3448    0.0000 </r>
        <r>    0.5619    0.0000 </r>
        <r>    0.5808    0.0000 </r>
        <r>    0.6606    0.0000 </r>
        <r>    0.6606    0.0000 </r>
        <r>    0.6932    0.0000 </r>
        <r>    0.7344    0.0000 </r>
       </set>
      </set>
     </set>
    </array>
   </eigenvalues>
   <array>
    <dimension dim="1">ion</dimension>
    <dimension dim="2">band</dimension>
    <dimension dim="3">kpoint</dimension>
    <dimension dim="4">spin</dimension>
    <field>  s  </field>
    <field>  p  </field>
    <field>  d  </field>
    <set>
     <set comment="spin1">
      <set comment="kpoint 1">
       <set comment="band 1">
        <r>  0.3804  0.1013  0.0000 </r>
        <r>  0.3804  0.1013  0.0000 </r>
       </set>
       <set comment="band 2">
        <r>  0.3565  0.0433  0.0000 </r>
        <r>  0.3565  0.0433  0.0000 </r>
       </set>
       <set comment="band 3">
        <r>  0.0403  0.3894  0.0000 </r>
        <r>  0.0403  0.3894  0.0000 </r>
       </set>
       <set comment="band 4">
        <r>  0.0000  0.3792  0.0000 </r>
        <r>  0.0000  0.3792  0.0000 </r>
       </set>
       <set comment="band 5">
        <r>  0.0000  0.3792  0.0000 </r>
        <r>  0.0000  0.3792  0.0000 </r>
       </set>
       <set comment="band 6">
        <r>  0.0000  0.3926  0.0000 </r>
        <r>  0.0000  0.3926  0.0000 </r>
       </set>
       <set comment="band 7">
        <r>  0.0000  0.3926  0.0000 </r>
        <r>  0.0000  0.3926  0.0000 </r>
       </set>
       <set comment="band 8">
        <r>  0.0039  0.0023  0.0000 </r>
        <r>  0.0039  0.0023  0.0000 </r>
       </set>
       <set comment="band 9">
        <r>  0.0019  0.0010  0.0000 </r>
        <r>  0.0019  0.0010  0.0000 </r>
       </set>
       <set comment="band 10">
        <r>  0.0037  0.0030  0.0000 </r>
        <r>  0.0037  0.0030  0.0000 </r>
       </set>
       <set comment="band 11">
        <r>  0.0000  0.0007  0.0000 </r>
        <r>  0.0000  0.0007  0.0000 </r>
       </set>
       <set comment="band 12">
        <r>  0.0000  0.0007  0.0000 </r>
        <r>  0.0000  0.0007  0.0000 </r>
       </set>
       <set comment="band 13">
        <r>  0.0001  0.0000  0.0000 </r>
        <r>  0.0001  0.0000  0.0000 </r>
       </set>
       <set comment="band 14">
        <r>  0.0000  0.0000  0.0000 </r>
        <r>  0.0000  0.0000  0.0000 </r>
       </set>
       <set comment="band 15">
        <r>  0.0035  0.0033  0.0000 </r>
        <r>  0.0035  0.0033  0.0000 </r>
       </set>
       <set comment="band 16">
        <r>  0.0011  0.0005  0.0000 </r>
        <r>  0.0011  0.0005  0.0000 </r>
       </set>
       <set comment="band 17">
        <r>  0.0000  0.0014  0.0000 </r>
        <r>  0.0000  0.0014  0.0000 </r>
       </set>
       <set comment="band 18">
        <r>  0.0000  0.0014  0.0000 </r>
        <r>  0.0000  0.0014  0.0000 </r>
       </set>
       <set comment="band 19">
        <r>  0.0000  0.0000  0.0000 </r>
        <r>  0.0000  0.0000  0.0000 </r>
       </set>
       <set comment="band 20">
        <r>  0.0000  0.0000  0.0000 </r>
        <r>  0.0000  0.0000  0.0000 </r>
       </set>
      </set>
     </set>
     <set comment="spin2">
      <set comment="kpoint 1">
       <set comment="band 1">
        <r>  0.3729  0.1123  0.0000 </r>
        <r>  0.3729  0.1123  0.0000 </r>
       </set>
       <set comment="band 2">
        <r>  0.3486  0.0478  0.0000 </r>
        <r>  0.3486  0.0478  0.0000 </r>
       </set>
       <set comment="band 3">
        <r>  0.0451  0.3771  0.0000 </r>
        <r>  0.0451  0.3771  0.0000 </r>
       </set>
       <set comment="band 4">
        <r>  0.0000  0.3653  0.0000 </r>
        <r>  0.0000  0.3653  0.0000 </r>
       </set>
       <set comment="band 5">
        <r>  0.0000  0.3653  0.0000 </r>
        <r>  0.0000  0.3653  0.0000 </r>
       </set>
       <set comment="band 6">
        <r>  0.0000  0.3771  0.0000 </r>
        <r>  0.0000  0.3771  0.0000 </r>
       </set>
       <set comment="band 7">
        <r>  0.0000  0.3771  0.0000 </r>
        <r>  0.0000  0.3771  0.0000 </r>
       </set>
       <set comment="band 8">
        <r>  0.0024  0.0015  0.0000 </r>
        <r>  0.0024  0.0015  0.0000 </r>
       </set>
       <set comment="band 9">
        <r>  0.0025  0.0014  0.0000 </r>
        <r>  0.0025  0.0014  0.0000 </r>
       </set>
       <set comment="band 10">
        <r>  0.0015  0.0006  0.0000 </r>
        <r>  0.0015  0.0006  0.0000 </r>
       </set>
       <set comment="band 11">
        <r>  0.0000  0.0005  0.0000 </r>
        <r>  0.0000  0.0005  0.0000 </r>
       </set>
       <set comment="band 12">
        <r>  0.0000  0.0005  0.0000 </r>
        <r>  0.0000  0.0005  0.0000 </r>
       </set>
       <set comment="band 13">
        <r>  0.0001  0.0000  0.0000 </r>
        <r>  0.0001  0.0000  0.0000 </r>
       </set>
       <set comment="band 14">
        <r>  0.0000  0.0000  0.0000 </r>
        <r>  0.0000  0.0000  0.0000 </r>
       </set>
       <set comment="band 15">
        <r>  0.0023  0.0010  0.0000 </r>
        <r>  0.0023  0.0010  0.0000 </r>
       </set>
       <set comment="band 16">
        <r>  0.0014  0.0007  0.0000 </r>
        <r>  0.0014  0.0007  0.0000 </r>
       </set>
       <set comment="band 17">
        <r>  0.0000  0.0012  0.0000 </r>
        <r>  0.0000  0.0012  0.0000 </r>
       </set>
       <set comment="band 18">
        <r>  0.0000  0.0012  0.0000 </r>
        <r>  0.0000  0.0012  0.0000 </r>
       </set>
       <set comment="band 19">
        <r>  0.0000  0.0000  0.0000 </r>
        <r>  0.0000  0.0000  0.0000 </r>
       </set>
       <set comment="band 20">
        <r>  0.0000  0.0000  0.0000 </r>
        <r>  0.0000  0.0000  0.0000 </r>
       </set>
      </set>
     </set>
    </set>
   </array>
  </projected>
 </calculation>
 <structure name="finalpos" >
  <crystal>
   <varray name="basis" >
    <v>      20.00000000       0.00000000       0.00000000 </v>
    <v>       0.00000000      20.00000000       0.00000000 </v>
    <v>       0.00000000       0.00000000      20.00000000 </v>
   </varray>
   <i name="volume">   8000.00000000 </i>
   <varray name="rec_basis" >
    <v>       0.05000000       0.00000000       0.00000000 </v>
    <v>       0.00000000       0.05000000       0.00000000 </v>
    <v>       0.00000000       0.00000000       0.05000000 </v>
   </varray>
  </crystal>
  <varray name="positions" >
   <v>       0.50000000       0.50000000       0.53061337 </v>
   <v>       0.50000000       0.50000000       0.46938663 </v>
  </varray>
 </structure>
</modeling>
