 running   40 mpi-ranks, on    1 nodes
 distrk:  each k-point on   40 cores,    1 groups
 distr:  one band on    4 cores,   10 groups
 vasp.6.4.3 19Mar24 (build Jul 09 2024 15:45:28) complex                        
  
 POSCAR found type information on POSCAR O 
 POSCAR found :  1 types and       2 ions
 scaLAPACK will be used
 -----------------------------------------------------------------------------
|                                                                             |
|               ----> ADVICE to this user running VASP <----                  |
|                                                                             |
|     You have a (more or less) 'small supercell' and for smaller cells       |
|     it is recommended to use the reciprocal-space projection scheme!        |
|     The real-space optimization is not efficient for small cells and it     |
|     is also less accurate ...                                               |
|     Therefore, set LREAL=.FALSE. in the INCAR file.                         |
|                                                                             |
 -----------------------------------------------------------------------------

 -----------------------------------------------------------------------------
|                                                                             |
|           W    W    AA    RRRRR   N    N  II  N    N   GGGG   !!!           |
|           W    W   A  A   R    R  NN   N  II  NN   N  G    G  !!!           |
|           W    W  A    A  R    R  N N  N  II  N N  N  G       !!!           |
|           W WW W  AAAAAA  RRRRR   N  N N  II  N  N N  G  GGG   !            |
|           WW  WW  A    A  R   R   N   NN  II  N   NN  G    G                |
|           W    W  A    A  R    R  N    N  II  N    N   GGGG   !!!           |
|                                                                             |
|     The real-space projection scheme for the treatment of the non-local     |
|     pseudopotentials has been switched on but on file POTCAR I have not     |
|     found any entries, signalling me that you have never performed a        |
|     real-space optimization of all non-local projectors! BE WARNED that     |
|     a calculation using the real-space projection scheme together with      |
|     non-local projectors which were not real-space optimized (according     |
|     to the plane-wave cutoff used in this calculation) might give more      |
|     or less inaccurate results. I hope you know what you are doing.         |
|                                                                             |
 -----------------------------------------------------------------------------

 LDA part: xc-table for (Slater+PW92), standard interpolation
 POSCAR found type information on POSCAR O 
 POSCAR found :  1 types and       2 ions
 POSCAR, INCAR and KPOINTS ok, starting setup
 FFT: planning ... GRIDC
 FFT: planning ... GRID_SOFT
 FFT: planning ... GRID
 WAVECAR not read
 entering main loop
       N       E                     dE             d eps       ncg     rms          rms(c)
DAV:   1     0.824904500116E+02    0.82490E+02   -0.21709E+03   160   0.206E+02
DAV:   2     0.856553162786E+01   -0.73925E+02   -0.73916E+02   120   0.719E+01
DAV:   3    -0.878524165858E+01   -0.17351E+02   -0.16216E+02   160   0.229E+01
DAV:   4    -0.106814048238E+02   -0.18962E+01   -0.18960E+01    80   0.563E+00
DAV:   5    -0.107194066815E+02   -0.38002E-01   -0.38002E-01    80   0.114E+00    0.638E+00
DAV:   6    -0.104232225101E+02    0.29618E+00   -0.11180E+00    80   0.536E+00    0.302E+00
DAV:   7    -0.108023692216E+02   -0.37915E+00   -0.18150E-01   120   0.231E+00    0.151E+00
DAV:   8    -0.108084413038E+02   -0.60721E-02   -0.66200E-02   140   0.122E+00    0.426E-01
DAV:   9    -0.108204614307E+02   -0.12020E-01   -0.38900E-03   140   0.324E-01    0.182E-01
DAV:  10    -0.108217492167E+02   -0.12878E-02   -0.10222E-03   120   0.170E-01    0.434E-02
DAV:  11    -0.108218811496E+02   -0.13193E-03   -0.65815E-05   140   0.406E-02    0.150E-02
DAV:  12    -0.108219639441E+02   -0.82794E-04   -0.11137E-05   140   0.139E-02
   1 F= -.10821964E+02 E0= -.10821964E+02  d E =-.108220E+02  mag=     2.0000
 curvature:   0.00 expect dE= 0.000E+00 dE for cont linesearch  0.000E+00
 trial: gam= 0.00000 g(F)=  0.115E+01 g(S)=  0.000E+00 ort = 0.000E+00 (trialstep = 0.100E+01)
 search vector abs. value=  0.115E+01
 bond charge predicted
       N       E                     dE             d eps       ncg     rms          rms(c)
DAV:   1    -0.827914112497E+01    0.25427E+01   -0.10824E+02    80   0.528E+01    0.415E+00
DAV:   2    -0.830844670950E+01   -0.29306E-01   -0.16907E+00   100   0.682E+00    0.209E+00
DAV:   3    -0.833907303179E+01   -0.30626E-01   -0.12791E-01    80   0.172E+00    0.916E-01
DAV:   4    -0.833482142763E+01    0.42516E-02   -0.65710E-02   140   0.112E+00    0.315E-01
DAV:   5    -0.833981617842E+01   -0.49948E-02   -0.39359E-03    80   0.262E-01    0.172E-01
DAV:   6    -0.834000791895E+01   -0.19174E-03   -0.93189E-04    80   0.150E-01    0.541E-02
DAV:   7    -0.834122696547E+01   -0.12190E-02   -0.11222E-04   100   0.580E-02    0.129E-02
DAV:   8    -0.834159756034E+01   -0.37059E-03   -0.13042E-05   100   0.130E-02    0.810E-03
DAV:   9    -0.834212675896E+01   -0.52920E-03   -0.46052E-05   140   0.204E-02    0.360E-03
DAV:  10    -0.834234650154E+01   -0.21974E-03   -0.13838E-05   120   0.104E-02    0.230E-03
DAV:  11    -0.834253089562E+01   -0.18439E-03   -0.10710E-05   100   0.909E-03    0.143E-03
DAV:  12    -0.834265251154E+01   -0.12162E-03   -0.75352E-06   120   0.669E-03    0.831E-04
DAV:  13    -0.834270449489E+01   -0.51983E-04   -0.13599E-06   120   0.309E-03
   2 F= -.83427045E+01 E0= -.83427045E+01  d E =0.247926E+01  mag=     2.0000
 trial-energy change:    2.479259  1 .order    1.448317   -1.149756    4.046390
 step:   0.2213(harm=  0.2213)  dis= 0.02018  next Energy=   -10.949168 (dE=-0.127E+00)
 bond charge predicted
       N       E                     dE             d eps       ncg     rms          rms(c)
DAV:   1    -0.108724943250E+02   -0.25298E+01   -0.66856E+01    80   0.406E+01    0.351E+00
DAV:   2    -0.107872685280E+02    0.85226E-01   -0.78358E-01    80   0.479E+00    0.147E+00
DAV:   3    -0.108222047393E+02   -0.34936E-01   -0.58754E-02   160   0.123E+00    0.704E-01
DAV:   4    -0.108270528026E+02   -0.48481E-02   -0.10528E-02   100   0.552E-01    0.273E-01
DAV:   5    -0.108303746674E+02   -0.33219E-02   -0.91390E-04   140   0.153E-01    0.102E-01
DAV:   6    -0.108311743479E+02   -0.79968E-03   -0.21118E-04   160   0.733E-02    0.187E-02
DAV:   7    -0.108313903571E+02   -0.21601E-03   -0.11081E-05    80   0.145E-02    0.875E-03
DAV:   8    -0.108315671532E+02   -0.17680E-03   -0.51202E-06    80   0.786E-03    0.506E-03
DAV:   9    -0.108317528450E+02   -0.18569E-03   -0.10576E-05   140   0.102E-02    0.199E-03
DAV:  10    -0.108318463344E+02   -0.93489E-04   -0.29928E-06    80   0.559E-03
   3 F= -.10831846E+02 E0= -.10831846E+02  d E =-.988239E-02  mag=     2.0000
 curvature:  -0.11 expect dE=-0.155E+00 dE for cont linesearch -0.155E+00
 ZBRENT: interpolating
 opt :   0.1052  next Energy=   -10.882462 (dE=-0.605E-01)
 bond charge predicted
       N       E                     dE             d eps       ncg     rms          rms(c)
DAV:   1    -0.108918827232E+02   -0.60130E-01   -0.14518E+00    80   0.595E+00    0.465E-01
DAV:   2    -0.108920625194E+02   -0.17980E-03   -0.19183E-02   120   0.741E-01    0.204E-01
DAV:   3    -0.108927020406E+02   -0.63952E-03   -0.11333E-03    80   0.181E-01    0.920E-02
DAV:   4    -0.108928152217E+02   -0.11318E-03   -0.42602E-04    80   0.950E-02    0.324E-02
DAV:   5    -0.108928781743E+02   -0.62953E-04   -0.25789E-05    80   0.249E-02
   4 F= -.10892878E+02 E0= -.10892878E+02  d E =-.709142E-01  mag=     2.0000
 curvature:  -0.04 expect dE=-0.638E-03 dE for cont linesearch -0.638E-03
 ZBRENT: interpolating
 opt :   0.1174  next Energy=   -10.893745 (dE=-0.718E-01)
 bond charge predicted
       N       E                     dE             d eps       ncg     rms          rms(c)
DAV:   1    -0.108936998153E+02   -0.88459E-03   -0.15794E-02   120   0.624E-01    0.445E-02
DAV:   2    -0.108937205530E+02   -0.20738E-04   -0.20301E-04   100   0.740E-02    0.191E-02
DAV:   3    -0.108937369587E+02   -0.16406E-04   -0.10984E-05   140   0.176E-02    0.818E-03
DAV:   4    -0.108937507312E+02   -0.13773E-04   -0.38121E-06   120   0.908E-03    0.292E-03
DAV:   5    -0.108937572701E+02   -0.65389E-05   -0.15902E-07   140   0.201E-03
   5 F= -.10893757E+02 E0= -.10893757E+02  d E =-.717933E-01  mag=     2.0000
 curvature:  -0.06 expect dE=-0.107E-06 dE for cont linesearch -0.107E-06
 trial: gam=-0.00125 g(F)=  0.181E-05 g(S)=  0.000E+00 ort = 0.144E-02 (trialstep = 0.823E+00)
 search vector abs. value=  0.103E-09
 reached required accuracy - stopping structural energy minimisation
