unknown system                          
           1
    20.000000    0.000000    0.000000
     0.000000   20.000000    0.000000
     0.000000    0.000000   20.000000
   O 
     2
Direct configuration=     1
   0.50000000  0.50000000  0.53114890
   0.50000000  0.50000000  0.46885110
Direct configuration=     2
   0.50000000  0.50000000  0.52658817
   0.50000000  0.50000000  0.47341183
Direct configuration=     3
   0.50000000  0.50000000  0.53013974
   0.50000000  0.50000000  0.46986026
Direct configuration=     4
   0.50000000  0.50000000  0.53066895
   0.50000000  0.50000000  0.46933105
Direct configuration=     5
   0.50000000  0.50000000  0.53061337
   0.50000000  0.50000000  0.46938663
