  35  35   1   0
  0.2644822E+02  0.5536700E-09  0.5747300E-09  0.2909039E-08  0.1500000E-15
  1.000000000000000E-004
  CAR 
 unknown system                          
      6.30468880    -46.18610983  301      1.03042908      1.00000000
    -46.186  0.0000E+00  0.0000E+00  0.0000E+00  0.0000E+00
    -46.011  0.0000E+00  0.0000E+00  0.0000E+00  0.0000E+00
    -45.836  0.0000E+00  0.0000E+00  0.0000E+00  0.0000E+00
    -45.661  0.0000E+00  0.0000E+00  0.0000E+00  0.0000E+00
    -45.486  0.0000E+00  0.0000E+00  0.0000E+00  0.0000E+00
    -45.311  0.0000E+00  0.0000E+00  0.0000E+00  0.0000E+00
    -45.136  0.0000E+00  0.0000E+00  0.0000E+00  0.0000E+00
    -44.961  0.1269E-15  0.0000E+00  0.2220E-16  0.0000E+00
    -44.786  0.2697E-11  0.5203E-14  0.4718E-12  0.9104E-15
    -44.611  0.9310E-08  0.4320E-10  0.1629E-08  0.7559E-11
    -44.436  0.7406E-05  0.8117E-07  0.1298E-05  0.1421E-07
    -44.261  0.1395E-02  0.3530E-04  0.2454E-03  0.6190E-05
    -44.086  0.6527E-01  0.3673E-02  0.1167E-01  0.6489E-03
    -43.912  0.8254E+00  0.9647E-01  0.1561E+00  0.1753E-01
    -43.737  0.3267E+01  0.6946E+00  0.7278E+00  0.1391E+00
    -43.562  0.5190E+01  0.1573E+01  0.1636E+01  0.4143E+00
    -43.387  0.4873E+01  0.1437E+01  0.2488E+01  0.6657E+00
    -43.212  0.3816E+01  0.7952E+00  0.3156E+01  0.8048E+00
    -43.037  0.2385E+01  0.8220E+00  0.3573E+01  0.9486E+00
    -42.862  0.1744E+01  0.1095E+01  0.3879E+01  0.1140E+01
    -42.687  0.1880E+01  0.9118E+00  0.4207E+01  0.1300E+01
    -42.512  0.1545E+01  0.8069E+00  0.4478E+01  0.1441E+01
    -42.337  0.6177E+00  0.6430E+00  0.4586E+01  0.1553E+01
    -42.162  0.9810E-01  0.2651E+00  0.4603E+01  0.1600E+01
    -41.987  0.2000E+00  0.2549E+00  0.4638E+01  0.1644E+01
    -41.812  0.5147E+00  0.5749E+00  0.4728E+01  0.1745E+01
    -41.637  0.3483E+00  0.7542E+00  0.4789E+01  0.1877E+01
    -41.462  0.6054E-01  0.1223E+01  0.4800E+01  0.2091E+01
    -41.287  0.2608E-02  0.1795E+01  0.4800E+01  0.2405E+01
    -41.112  0.2678E-04  0.2954E+01  0.4800E+01  0.2922E+01
    -40.937  0.6349E-07  0.3191E+01  0.4800E+01  0.3480E+01
    -40.762  0.3407E-10  0.2190E+01  0.4800E+01  0.3863E+01
    -40.587  0.4061E-14  0.1328E+01  0.4800E+01  0.4096E+01
    -40.412  0.0000E+00  0.5432E+00  0.4800E+01  0.4191E+01
    -40.237  0.0000E+00  0.3558E+00  0.4800E+01  0.4253E+01
    -40.062  0.0000E+00  0.9671E+00  0.4800E+01  0.4422E+01
    -39.887  0.0000E+00  0.9965E+00  0.4800E+01  0.4597E+01
    -39.712  0.0000E+00  0.6851E+00  0.4800E+01  0.4716E+01
    -39.537  0.0000E+00  0.3966E+00  0.4800E+01  0.4786E+01
    -39.362  0.0000E+00  0.7737E-01  0.4800E+01  0.4799E+01
    -39.187  0.0000E+00  0.3848E-02  0.4800E+01  0.4800E+01
    -39.012  0.0000E+00  0.4585E-04  0.4800E+01  0.4800E+01
    -38.837  0.0000E+00  0.1265E-06  0.4800E+01  0.4800E+01
    -38.662  0.0000E+00  0.7915E-10  0.4800E+01  0.4800E+01
    -38.487  0.0000E+00  0.1104E-13  0.4800E+01  0.4800E+01
    -38.312  0.0000E+00  0.0000E+00  0.4800E+01  0.4800E+01
    -38.138  0.0000E+00  0.0000E+00  0.4800E+01  0.4800E+01
    -37.963  0.0000E+00  0.0000E+00  0.4800E+01  0.4800E+01
    -37.788  0.0000E+00  0.0000E+00  0.4800E+01  0.4800E+01
    -37.613  0.0000E+00  0.0000E+00  0.4800E+01  0.4800E+01
    -37.438  0.0000E+00  0.0000E+00  0.4800E+01  0.4800E+01
    -37.263  0.0000E+00  0.0000E+00  0.4800E+01  0.4800E+01
    -37.088  0.0000E+00  0.0000E+00  0.4800E+01  0.4800E+01
    -36.913  0.0000E+00  0.0000E+00  0.4800E+01  0.4800E+01
    -36.738  0.0000E+00  0.0000E+00  0.4800E+01  0.4800E+01
    -36.563  0.0000E+00  0.0000E+00  0.4800E+01  0.4800E+01
    -36.388  0.0000E+00  0.0000E+00  0.4800E+01  0.4800E+01
    -36.213  0.0000E+00  0.0000E+00  0.4800E+01  0.4800E+01
    -36.038  0.0000E+00  0.0000E+00  0.4800E+01  0.4800E+01
    -35.863  0.0000E+00  0.0000E+00  0.4800E+01  0.4800E+01
    -35.688  0.0000E+00  0.0000E+00  0.4800E+01  0.4800E+01
    -35.513  0.0000E+00  0.0000E+00  0.4800E+01  0.4800E+01
    -35.338  0.0000E+00  0.0000E+00  0.4800E+01  0.4800E+01
    -35.163  0.0000E+00  0.0000E+00  0.4800E+01  0.4800E+01
    -34.988  0.0000E+00  0.0000E+00  0.4800E+01  0.4800E+01
    -34.813  0.0000E+00  0.0000E+00  0.4800E+01  0.4800E+01
    -34.638  0.0000E+00  0.0000E+00  0.4800E+01  0.4800E+01
    -34.463  0.0000E+00  0.0000E+00  0.4800E+01  0.4800E+01
    -34.288  0.0000E+00  0.0000E+00  0.4800E+01  0.4800E+01
    -34.113  0.0000E+00  0.0000E+00  0.4800E+01  0.4800E+01
    -33.938  0.0000E+00  0.0000E+00  0.4800E+01  0.4800E+01
    -33.763  0.0000E+00  0.0000E+00  0.4800E+01  0.4800E+01
    -33.588  0.0000E+00  0.0000E+00  0.4800E+01  0.4800E+01
    -33.413  0.0000E+00  0.0000E+00  0.4800E+01  0.4800E+01
    -33.238  0.0000E+00  0.0000E+00  0.4800E+01  0.4800E+01
    -33.063  0.0000E+00  0.0000E+00  0.4800E+01  0.4800E+01
    -32.888  0.0000E+00  0.0000E+00  0.4800E+01  0.4800E+01
    -32.713  0.0000E+00  0.0000E+00  0.4800E+01  0.4800E+01
    -32.539  0.0000E+00  0.0000E+00  0.4800E+01  0.4800E+01
    -32.364  0.2411E-14  0.8058E-14  0.4800E+01  0.4800E+01
    -32.189  0.2209E-10  0.6106E-10  0.4800E+01  0.4800E+01
    -32.014  0.4488E-07  0.1033E-06  0.4800E+01  0.4800E+01
    -31.839  0.2085E-04  0.4011E-04  0.4800E+01  0.4800E+01
    -31.664  0.2296E-02  0.3714E-02  0.4800E+01  0.4801E+01
    -31.489  0.6416E-01  0.8816E-01  0.4812E+01  0.4816E+01
    -31.314  0.5133E+00  0.6099E+00  0.4901E+01  0.4923E+01
    -31.139  0.1412E+01  0.1489E+01  0.5149E+01  0.5183E+01
    -30.964  0.1617E+01  0.1552E+01  0.5431E+01  0.5455E+01
    -30.789  0.8365E+00  0.7400E+00  0.5578E+01  0.5584E+01
    -30.614  0.4577E+00  0.4398E+00  0.5658E+01  0.5661E+01
    -30.439  0.9021E+00  0.9108E+00  0.5816E+01  0.5821E+01
    -30.264  0.8083E+00  0.7933E+00  0.5957E+01  0.5959E+01
    -30.089  0.2261E+00  0.2148E+00  0.5997E+01  0.5997E+01
    -29.914  0.1814E-01  0.1663E-01  0.6000E+01  0.6000E+01
    -29.739  0.3796E-03  0.3349E-03  0.6000E+01  0.6000E+01
    -29.564  0.1925E-05  0.1632E-05  0.6000E+01  0.6000E+01
    -29.389  0.2261E-08  0.1841E-08  0.6000E+01  0.6000E+01
    -29.214  0.6000E-12  0.4689E-12  0.6000E+01  0.6000E+01
    -29.039  0.0000E+00  0.0000E+00  0.6000E+01  0.6000E+01
    -28.864  0.0000E+00  0.0000E+00  0.6000E+01  0.6000E+01
    -28.689  0.0000E+00  0.0000E+00  0.6000E+01  0.6000E+01
    -28.514  0.0000E+00  0.0000E+00  0.6000E+01  0.6000E+01
    -28.339  0.0000E+00  0.0000E+00  0.6000E+01  0.6000E+01
    -28.164  0.0000E+00  0.0000E+00  0.6000E+01  0.6000E+01
    -27.989  0.0000E+00  0.0000E+00  0.6000E+01  0.6000E+01
    -27.814  0.0000E+00  0.0000E+00  0.6000E+01  0.6000E+01
    -27.639  0.0000E+00  0.0000E+00  0.6000E+01  0.6000E+01
    -27.464  0.0000E+00  0.0000E+00  0.6000E+01  0.6000E+01
    -27.289  0.0000E+00  0.0000E+00  0.6000E+01  0.6000E+01
    -27.114  0.0000E+00  0.0000E+00  0.6000E+01  0.6000E+01
    -26.939  0.0000E+00  0.0000E+00  0.6000E+01  0.6000E+01
    -26.765  0.0000E+00  0.0000E+00  0.6000E+01  0.6000E+01
    -26.590  0.0000E+00  0.0000E+00  0.6000E+01  0.6000E+01
    -26.415  0.0000E+00  0.0000E+00  0.6000E+01  0.6000E+01
    -26.240  0.0000E+00  0.0000E+00  0.6000E+01  0.6000E+01
    -26.065  0.0000E+00  0.0000E+00  0.6000E+01  0.6000E+01
    -25.890  0.0000E+00  0.0000E+00  0.6000E+01  0.6000E+01
    -25.715  0.0000E+00  0.0000E+00  0.6000E+01  0.6000E+01
    -25.540  0.0000E+00  0.0000E+00  0.6000E+01  0.6000E+01
    -25.365  0.0000E+00  0.0000E+00  0.6000E+01  0.6000E+01
    -25.190  0.0000E+00  0.0000E+00  0.6000E+01  0.6000E+01
    -25.015  0.0000E+00  0.0000E+00  0.6000E+01  0.6000E+01
    -24.840  0.0000E+00  0.0000E+00  0.6000E+01  0.6000E+01
    -24.665  0.0000E+00  0.0000E+00  0.6000E+01  0.6000E+01
    -24.490  0.0000E+00  0.0000E+00  0.6000E+01  0.6000E+01
    -24.315  0.0000E+00  0.0000E+00  0.6000E+01  0.6000E+01
    -24.140  0.0000E+00  0.0000E+00  0.6000E+01  0.6000E+01
    -23.965  0.0000E+00  0.0000E+00  0.6000E+01  0.6000E+01
    -23.790  0.0000E+00  0.0000E+00  0.6000E+01  0.6000E+01
    -23.615  0.0000E+00  0.0000E+00  0.6000E+01  0.6000E+01
    -23.440  0.0000E+00  0.0000E+00  0.6000E+01  0.6000E+01
    -23.265  0.0000E+00  0.0000E+00  0.6000E+01  0.6000E+01
    -23.090  0.0000E+00  0.0000E+00  0.6000E+01  0.6000E+01
    -22.915  0.0000E+00  0.0000E+00  0.6000E+01  0.6000E+01
    -22.740  0.0000E+00  0.0000E+00  0.6000E+01  0.6000E+01
    -22.565  0.0000E+00  0.0000E+00  0.6000E+01  0.6000E+01
    -22.390  0.0000E+00  0.0000E+00  0.6000E+01  0.6000E+01
    -22.215  0.0000E+00  0.0000E+00  0.6000E+01  0.6000E+01
    -22.040  0.0000E+00  0.0000E+00  0.6000E+01  0.6000E+01
    -21.865  0.0000E+00  0.0000E+00  0.6000E+01  0.6000E+01
    -21.690  0.0000E+00  0.0000E+00  0.6000E+01  0.6000E+01
    -21.515  0.0000E+00  0.0000E+00  0.6000E+01  0.6000E+01
    -21.340  0.0000E+00  0.0000E+00  0.6000E+01  0.6000E+01
    -21.165  0.0000E+00  0.0000E+00  0.6000E+01  0.6000E+01
    -20.991  0.0000E+00  0.0000E+00  0.6000E+01  0.6000E+01
    -20.816  0.0000E+00  0.0000E+00  0.6000E+01  0.6000E+01
    -20.641  0.0000E+00  0.0000E+00  0.6000E+01  0.6000E+01
    -20.466  0.0000E+00  0.0000E+00  0.6000E+01  0.6000E+01
    -20.291  0.0000E+00  0.0000E+00  0.6000E+01  0.6000E+01
    -20.116  0.0000E+00  0.0000E+00  0.6000E+01  0.6000E+01
    -19.941  0.0000E+00  0.0000E+00  0.6000E+01  0.6000E+01
    -19.766  0.8249E-14  0.2265E-13  0.6000E+01  0.6000E+01
    -19.591  0.6168E-10  0.1448E-09  0.6000E+01  0.6000E+01
    -19.416  0.1032E-06  0.2070E-06  0.6000E+01  0.6000E+01
    -19.241  0.3913E-04  0.6717E-04  0.6000E+01  0.6000E+01
    -19.066  0.3433E-02  0.5058E-02  0.6001E+01  0.6001E+01
    -18.891  0.7199E-01  0.9142E-01  0.6013E+01  0.6017E+01
    -18.716  0.3798E+00  0.4174E+00  0.6080E+01  0.6090E+01
    -18.541  0.6210E+00  0.6001E+00  0.6188E+01  0.6195E+01
    -18.366  0.9604E+00  0.9085E+00  0.6356E+01  0.6354E+01
    -18.191  0.1728E+01  0.1675E+01  0.6659E+01  0.6647E+01
    -18.016  0.2019E+01  0.2036E+01  0.7012E+01  0.7003E+01
    -17.841  0.2352E+01  0.2358E+01  0.7424E+01  0.7416E+01
    -17.666  0.2270E+01  0.2241E+01  0.7821E+01  0.7808E+01
    -17.491  0.2177E+01  0.2122E+01  0.8202E+01  0.8179E+01
    -17.316  0.2541E+01  0.2480E+01  0.8646E+01  0.8613E+01
    -17.141  0.2234E+01  0.2297E+01  0.9037E+01  0.9015E+01
    -16.966  0.1328E+01  0.1357E+01  0.9269E+01  0.9253E+01
    -16.791  0.8079E+00  0.8523E+00  0.9411E+01  0.9402E+01
    -16.616  0.1031E+01  0.1084E+01  0.9591E+01  0.9591E+01
    -16.441  0.1424E+01  0.1441E+01  0.9840E+01  0.9843E+01
    -16.266  0.7850E+00  0.7649E+00  0.9978E+01  0.9977E+01
    -16.091  0.2503E+00  0.1248E+00  0.1002E+02  0.9999E+01
    -15.916  0.4597E+00  0.5546E-02  0.1010E+02  0.1000E+02
    -15.741  0.4422E+00  0.6248E-04  0.1018E+02  0.1000E+02
    -15.566  0.1114E+00  0.1660E-03  0.1020E+02  0.1000E+02
    -15.392  0.1187E-01  0.1326E-01  0.1020E+02  0.1000E+02
    -15.217  0.1214E+00  0.2619E+00  0.1022E+02  0.1005E+02
    -15.042  0.8371E+00  0.1410E+01  0.1037E+02  0.1029E+02
    -14.867  0.1985E+01  0.2573E+01  0.1072E+02  0.1074E+02
    -14.692  0.2351E+01  0.2465E+01  0.1113E+02  0.1118E+02
    -14.517  0.2167E+01  0.2137E+01  0.1151E+02  0.1155E+02
    -14.342  0.2358E+01  0.2331E+01  0.1192E+02  0.1196E+02
    -14.167  0.2575E+01  0.2536E+01  0.1237E+02  0.1240E+02
    -13.992  0.2699E+01  0.2679E+01  0.1284E+02  0.1287E+02
    -13.817  0.1761E+01  0.1666E+01  0.1315E+02  0.1316E+02
    -13.642  0.9138E+00  0.8864E+00  0.1331E+02  0.1332E+02
    -13.467  0.1076E+01  0.1073E+01  0.1350E+02  0.1350E+02
    -13.292  0.8462E+00  0.8331E+00  0.1365E+02  0.1365E+02
    -13.117  0.6106E+00  0.6001E+00  0.1375E+02  0.1376E+02
    -12.942  0.2404E+00  0.2280E+00  0.1380E+02  0.1380E+02
    -12.767  0.2714E-01  0.2457E-01  0.1380E+02  0.1380E+02
    -12.592  0.7591E-03  0.6547E-03  0.1380E+02  0.1380E+02
    -12.417  0.5012E-05  0.4111E-05  0.1380E+02  0.1380E+02
    -12.242  0.7589E-08  0.5916E-08  0.1380E+02  0.1380E+02
    -12.067  0.2588E-11  0.1917E-11  0.1380E+02  0.1380E+02
    -11.892  0.2538E-15  0.1269E-15  0.1380E+02  0.1380E+02
    -11.717  0.0000E+00  0.0000E+00  0.1380E+02  0.1380E+02
    -11.542  0.0000E+00  0.0000E+00  0.1380E+02  0.1380E+02
    -11.367  0.0000E+00  0.0000E+00  0.1380E+02  0.1380E+02
    -11.192  0.0000E+00  0.0000E+00  0.1380E+02  0.1380E+02
    -11.017  0.0000E+00  0.0000E+00  0.1380E+02  0.1380E+02
    -10.842  0.0000E+00  0.0000E+00  0.1380E+02  0.1380E+02
    -10.667  0.0000E+00  0.0000E+00  0.1380E+02  0.1380E+02
    -10.492  0.0000E+00  0.0000E+00  0.1380E+02  0.1380E+02
    -10.317  0.0000E+00  0.0000E+00  0.1380E+02  0.1380E+02
    -10.142  0.0000E+00  0.0000E+00  0.1380E+02  0.1380E+02
     -9.967  0.0000E+00  0.0000E+00  0.1380E+02  0.1380E+02
     -9.792  0.0000E+00  0.0000E+00  0.1380E+02  0.1380E+02
     -9.618  0.0000E+00  0.0000E+00  0.1380E+02  0.1380E+02
     -9.443  0.0000E+00  0.0000E+00  0.1380E+02  0.1380E+02
     -9.268  0.0000E+00  0.0000E+00  0.1380E+02  0.1380E+02
     -9.093  0.0000E+00  0.0000E+00  0.1380E+02  0.1380E+02
     -8.918  0.0000E+00  0.0000E+00  0.1380E+02  0.1380E+02
     -8.743  0.0000E+00  0.0000E+00  0.1380E+02  0.1380E+02
     -8.568  0.0000E+00  0.0000E+00  0.1380E+02  0.1380E+02
     -8.393  0.0000E+00  0.0000E+00  0.1380E+02  0.1380E+02
     -8.218  0.0000E+00  0.0000E+00  0.1380E+02  0.1380E+02
     -8.043  0.0000E+00  0.0000E+00  0.1380E+02  0.1380E+02
     -7.868  0.0000E+00  0.0000E+00  0.1380E+02  0.1380E+02
     -7.693  0.0000E+00  0.0000E+00  0.1380E+02  0.1380E+02
     -7.518  0.0000E+00  0.0000E+00  0.1380E+02  0.1380E+02
     -7.343  0.0000E+00  0.0000E+00  0.1380E+02  0.1380E+02
     -7.168  0.0000E+00  0.0000E+00  0.1380E+02  0.1380E+02
     -6.993  0.0000E+00  0.0000E+00  0.1380E+02  0.1380E+02
     -6.818  0.1580E-13  0.1269E-15  0.1380E+02  0.1380E+02
     -6.643  0.1068E-09  0.2143E-11  0.1380E+02  0.1380E+02
     -6.468  0.1616E-06  0.6490E-08  0.1380E+02  0.1380E+02
     -6.293  0.5544E-04  0.4425E-05  0.1380E+02  0.1380E+02
     -6.118  0.4410E-02  0.6917E-03  0.1380E+02  0.1380E+02
     -5.943  0.8410E-01  0.2548E-01  0.1382E+02  0.1380E+02
     -5.768  0.4057E+00  0.2304E+00  0.1389E+02  0.1384E+02
     -5.593  0.6052E+00  0.5579E+00  0.1399E+02  0.1394E+02
     -5.418  0.7286E+00  0.5909E+00  0.1412E+02  0.1405E+02
     -5.243  0.9678E+00  0.7916E+00  0.1429E+02  0.1418E+02
     -5.068  0.8762E+00  0.9249E+00  0.1444E+02  0.1435E+02
     -4.893  0.1497E+01  0.1113E+01  0.1470E+02  0.1454E+02
     -4.718  0.2278E+01  0.1577E+01  0.1510E+02  0.1482E+02
     -4.543  0.2356E+01  0.1658E+01  0.1552E+02  0.1511E+02
     -4.368  0.2710E+01  0.2530E+01  0.1599E+02  0.1555E+02
     -4.193  0.3770E+01  0.3427E+01  0.1665E+02  0.1615E+02
     -4.019  0.4150E+01  0.3664E+01  0.1737E+02  0.1679E+02
     -3.844  0.3293E+01  0.3744E+01  0.1795E+02  0.1745E+02
     -3.669  0.2878E+01  0.3689E+01  0.1845E+02  0.1809E+02
     -3.494  0.3173E+01  0.2801E+01  0.1901E+02  0.1858E+02
     -3.319  0.3841E+01  0.2722E+01  0.1968E+02  0.1906E+02
     -3.144  0.3554E+01  0.3219E+01  0.2030E+02  0.1962E+02
     -2.969  0.2624E+01  0.3841E+01  0.2076E+02  0.2029E+02
     -2.794  0.1950E+01  0.3290E+01  0.2110E+02  0.2087E+02
     -2.619  0.1600E+01  0.1947E+01  0.2138E+02  0.2121E+02
     -2.444  0.2489E+01  0.2123E+01  0.2182E+02  0.2158E+02
     -2.269  0.3162E+01  0.2994E+01  0.2237E+02  0.2210E+02
     -2.094  0.3359E+01  0.3315E+01  0.2296E+02  0.2268E+02
     -1.919  0.3465E+01  0.3537E+01  0.2357E+02  0.2330E+02
     -1.744  0.3447E+01  0.3352E+01  0.2417E+02  0.2389E+02
     -1.569  0.3186E+01  0.2934E+01  0.2473E+02  0.2440E+02
     -1.394  0.2722E+01  0.2769E+01  0.2520E+02  0.2489E+02
     -1.219  0.1951E+01  0.2078E+01  0.2555E+02  0.2525E+02
     -1.044  0.1324E+01  0.1416E+01  0.2578E+02  0.2550E+02
     -0.869  0.1251E+01  0.1253E+01  0.2600E+02  0.2572E+02
     -0.694  0.1069E+01  0.1220E+01  0.2618E+02  0.2593E+02
     -0.519  0.1037E+01  0.9033E+00  0.2636E+02  0.2609E+02
     -0.344  0.1642E+01  0.5085E+00  0.2665E+02  0.2618E+02
     -0.169  0.1979E+01  0.1886E+00  0.2700E+02  0.2621E+02
      0.006  0.2351E+01  0.4758E+00  0.2741E+02  0.2629E+02
      0.181  0.3101E+01  0.1274E+01  0.2795E+02  0.2652E+02
      0.356  0.3083E+01  0.1829E+01  0.2849E+02  0.2684E+02
      0.531  0.2672E+01  0.1328E+01  0.2896E+02  0.2707E+02
      0.706  0.2721E+01  0.6497E+00  0.2943E+02  0.2718E+02
      0.881  0.2668E+01  0.5049E+00  0.2990E+02  0.2727E+02
      1.056  0.1877E+01  0.9417E+00  0.3023E+02  0.2744E+02
      1.231  0.1449E+01  0.1143E+01  0.3048E+02  0.2764E+02
      1.406  0.1564E+01  0.1437E+01  0.3076E+02  0.2789E+02
      1.581  0.1918E+01  0.2173E+01  0.3109E+02  0.2827E+02
      1.755  0.2217E+01  0.2127E+01  0.3148E+02  0.2864E+02
      1.930  0.2141E+01  0.1655E+01  0.3186E+02  0.2893E+02
      2.105  0.2214E+01  0.1871E+01  0.3224E+02  0.2926E+02
      2.280  0.2467E+01  0.2065E+01  0.3267E+02  0.2962E+02
      2.455  0.1551E+01  0.2133E+01  0.3295E+02  0.2999E+02
      2.630  0.6682E+00  0.1627E+01  0.3306E+02  0.3028E+02
      2.805  0.9225E+00  0.2605E+01  0.3322E+02  0.3073E+02
      2.980  0.1171E+01  0.4486E+01  0.3343E+02  0.3152E+02
      3.155  0.8680E+00  0.4446E+01  0.3358E+02  0.3230E+02
      3.330  0.7369E+00  0.3401E+01  0.3371E+02  0.3289E+02
      3.505  0.1570E+01  0.2910E+01  0.3398E+02  0.3340E+02
      3.680  0.3416E+01  0.4457E+01  0.3458E+02  0.3418E+02
      3.855  0.4533E+01  0.5780E+01  0.3538E+02  0.3519E+02
      4.030  0.2849E+01  0.3673E+01  0.3587E+02  0.3583E+02
      4.205  0.6716E+00  0.8852E+00  0.3599E+02  0.3599E+02
      4.380  0.4866E-01  0.6638E-01  0.3600E+02  0.3600E+02
      4.555  0.9491E-03  0.1360E-02  0.3600E+02  0.3600E+02
      4.730  0.4590E-05  0.7024E-05  0.3600E+02  0.3600E+02
      4.905  0.5236E-08  0.8697E-08  0.3600E+02  0.3600E+02
      5.080  0.1369E-11  0.2504E-11  0.3600E+02  0.3600E+02
      5.255  0.0000E+00  0.1269E-15  0.3600E+02  0.3600E+02
      5.430  0.0000E+00  0.0000E+00  0.3600E+02  0.3600E+02
      5.605  0.0000E+00  0.0000E+00  0.3600E+02  0.3600E+02
      5.780  0.0000E+00  0.0000E+00  0.3600E+02  0.3600E+02
      5.955  0.0000E+00  0.0000E+00  0.3600E+02  0.3600E+02
      6.130  0.0000E+00  0.0000E+00  0.3600E+02  0.3600E+02
      6.305  0.0000E+00  0.0000E+00  0.3600E+02  0.3600E+02
      6.30468880    -46.18610983  301      1.03042908      1.00000000
    -46.186  0.0000E+00  0.0000E+00  0.0000E+00  0.0000E+00  0.0000E+00  0.0000E+00  0.0000E+00  0.0000E+00
    -46.011  0.0000E+00  0.0000E+00  0.0000E+00  0.0000E+00  0.0000E+00  0.0000E+00  0.0000E+00  0.0000E+00
    -45.836  0.0000E+00  0.0000E+00  0.0000E+00  0.0000E+00  0.0000E+00  0.0000E+00  0.0000E+00  0.0000E+00
    -45.661  0.0000E+00  0.0000E+00  0.0000E+00  0.0000E+00  0.0000E+00  0.0000E+00  0.0000E+00  0.0000E+00
    -45.486  0.0000E+00  0.0000E+00  0.0000E+00  0.0000E+00  0.0000E+00  0.0000E+00  0.0000E+00  0.0000E+00
    -45.311  0.0000E+00  0.0000E+00  0.0000E+00  0.0000E+00  0.0000E+00  0.0000E+00  0.0000E+00  0.0000E+00
    -45.136  0.0000E+00  0.0000E+00  0.0000E+00  0.0000E+00  0.0000E+00  0.0000E+00  0.0000E+00  0.0000E+00
    -44.961  0.2086E-25  0.0000E+00  0.2582E-24  0.0000E+00  0.2927E-25  0.0000E+00  0.0000E+00  0.0000E+00
    -44.786  0.5979E-19  0.1477E-23  0.2690E-16  0.1024E-23  0.8429E-19  0.5305E-24  0.0000E+00  0.0000E+00
    -44.611  0.2393E-15  0.1204E-19  0.1080E-12  0.9955E-20  0.3372E-15  0.4303E-20  0.0000E+00  0.0000E+00
    -44.436  0.2162E-12  0.2207E-16  0.9802E-10  0.2223E-16  0.3044E-12  0.7841E-17  0.0000E+00  0.0000E+00
    -44.261  0.4506E-10  0.9258E-14  0.2110E-07  0.1190E-13  0.6335E-10  0.3262E-14  0.0000E+00  0.0000E+00
    -44.086  0.2263E-08  0.9168E-12  0.1860E-05  0.1556E-11  0.3160E-08  0.3201E-12  0.0000E+00  0.0000E+00
    -43.912  0.3381E-07  0.2266E-10  0.2943E-03  0.5121E-10  0.4374E-07  0.7903E-11  0.0000E+00  0.0000E+00
    -43.737  0.5297E-06  0.1533E-09  0.2233E-01  0.4455E-09  0.4729E-06  0.5533E-10  0.0000E+00  0.0000E+00
    -43.562  0.8450E-05  0.3216E-09  0.4296E+00  0.1104E-08  0.6607E-05  0.1329E-09  0.0000E+00  0.0000E+00
    -43.387  0.4377E-04  0.2340E-09  0.2225E+01  0.8884E-09  0.3209E-04  0.1359E-09  0.0000E+00  0.0000E+00
    -43.212  0.8140E-04  0.8864E-10  0.3983E+01  0.3179E-09  0.4862E-04  0.7485E-10  0.0000E+00  0.0000E+00
    -43.037  0.8744E-04  0.1331E-09  0.3506E+01  0.3904E-09  0.3371E-04  0.7143E-10  0.0000E+00  0.0000E+00
    -42.862  0.1637E-03  0.1659E-09  0.2366E+01  0.3618E-08  0.3148E-04  0.1090E-09  0.0000E+00  0.0000E+00
    -42.687  0.3103E-03  0.7330E-10  0.2744E+01  0.1365E-07  0.5021E-04  0.1134E-09  0.0000E+00  0.0000E+00
    -42.512  0.1783E-03  0.1806E-10  0.1520E+01  0.1647E-07  0.2856E-04  0.1167E-09  0.0000E+00  0.0000E+00
    -42.337  0.2644E-04  0.6209E-11  0.2251E+00  0.1585E-07  0.4234E-05  0.9905E-10  0.0000E+00  0.0000E+00
    -42.162  0.9680E-06  0.1004E-08  0.8239E-02  0.6023E-05  0.1550E-06  0.1864E-09  0.0000E+00  0.0000E+00
    -41.987  0.8410E-08  0.2156E-06  0.7156E-04  0.1294E-02  0.1360E-08  0.3163E-07  0.0000E+00  0.0000E+00
    -41.812  0.1938E-10  0.1085E-04  0.1432E-06  0.6518E-01  0.3822E-10  0.1592E-05  0.0000E+00  0.0000E+00
    -41.637  0.1728E-11  0.1325E-03  0.1092E-09  0.8031E+00  0.2404E-10  0.1958E-04  0.0000E+00  0.0000E+00
    -41.462  0.2990E-12  0.4102E-03  0.7751E-11  0.2682E+01  0.4178E-11  0.6467E-04  0.0000E+00  0.0000E+00
    -41.287  0.1288E-13  0.3422E-03  0.3335E-12  0.3504E+01  0.1800E-12  0.8008E-04  0.0000E+00  0.0000E+00
    -41.112  0.1323E-15  0.9550E-04  0.3553E-14  0.3014E+01  0.1848E-14  0.6444E-04  0.0000E+00  0.0000E+00
    -40.937  0.3151E-18  0.1849E-04  0.0000E+00  0.1257E+01  0.4381E-17  0.2738E-04  0.0000E+00  0.0000E+00
    -40.762  0.0000E+00  0.2754E-04  0.0000E+00  0.1119E+01  0.0000E+00  0.3274E-04  0.0000E+00  0.0000E+00
    -40.587  0.0000E+00  0.6731E-04  0.0000E+00  0.2562E+01  0.0000E+00  0.7743E-04  0.0000E+00  0.0000E+00
    -40.412  0.0000E+00  0.4500E-04  0.0000E+00  0.1711E+01  0.0000E+00  0.5174E-04  0.0000E+00  0.0000E+00
    -40.237  0.0000E+00  0.7736E-05  0.0000E+00  0.2939E+00  0.0000E+00  0.8907E-05  0.0000E+00  0.0000E+00
    -40.062  0.0000E+00  0.3519E-06  0.0000E+00  0.1254E-01  0.0000E+00  0.4445E-06  0.0000E+00  0.0000E+00
    -39.887  0.0000E+00  0.3131E-07  0.0000E+00  0.1590E-03  0.0000E+00  0.7623E-07  0.0000E+00  0.0000E+00
    -39.712  0.0000E+00  0.3251E-07  0.0000E+00  0.3965E-04  0.0000E+00  0.6749E-07  0.0000E+00  0.0000E+00
    -39.537  0.0000E+00  0.2237E-07  0.0000E+00  0.2738E-04  0.0000E+00  0.4409E-07  0.0000E+00  0.0000E+00
    -39.362  0.0000E+00  0.4436E-08  0.0000E+00  0.5435E-05  0.0000E+00  0.8709E-08  0.0000E+00  0.0000E+00
    -39.187  0.0000E+00  0.2209E-09  0.0000E+00  0.2707E-06  0.0000E+00  0.4335E-09  0.0000E+00  0.0000E+00
    -39.012  0.0000E+00  0.2632E-11  0.0000E+00  0.3225E-08  0.0000E+00  0.5165E-11  0.0000E+00  0.0000E+00
    -38.837  0.0000E+00  0.7264E-14  0.0000E+00  0.8900E-11  0.0000E+00  0.1426E-13  0.0000E+00  0.0000E+00
    -38.662  0.0000E+00  0.4544E-17  0.0000E+00  0.5567E-14  0.0000E+00  0.8918E-17  0.0000E+00  0.0000E+00
    -38.487  0.0000E+00  0.6338E-21  0.0000E+00  0.7766E-18  0.0000E+00  0.1244E-20  0.0000E+00  0.0000E+00
    -38.312  0.0000E+00  0.0000E+00  0.0000E+00  0.0000E+00  0.0000E+00  0.0000E+00  0.0000E+00  0.0000E+00
    -38.138  0.0000E+00  0.0000E+00  0.0000E+00  0.0000E+00  0.0000E+00  0.0000E+00  0.0000E+00  0.0000E+00
    -37.963  0.0000E+00  0.0000E+00  0.0000E+00  0.0000E+00  0.0000E+00  0.0000E+00  0.0000E+00  0.0000E+00
    -37.788  0.0000E+00  0.0000E+00  0.0000E+00  0.0000E+00  0.0000E+00  0.0000E+00  0.0000E+00  0.0000E+00
    -37.613  0.0000E+00  0.0000E+00  0.0000E+00  0.0000E+00  0.0000E+00  0.0000E+00  0.0000E+00  0.0000E+00
    -37.438  0.0000E+00  0.0000E+00  0.0000E+00  0.0000E+00  0.0000E+00  0.0000E+00  0.0000E+00  0.0000E+00
    -37.263  0.0000E+00  0.0000E+00  0.0000E+00  0.0000E+00  0.0000E+00  0.0000E+00  0.0000E+00  0.0000E+00
    -37.088  0.0000E+00  0.0000E+00  0.0000E+00  0.0000E+00  0.0000E+00  0.0000E+00  0.0000E+00  0.0000E+00
    -36.913  0.0000E+00  0.0000E+00  0.0000E+00  0.0000E+00  0.0000E+00  0.0000E+00  0.0000E+00  0.0000E+00
    -36.738  0.0000E+00  0.0000E+00  0.0000E+00  0.0000E+00  0.0000E+00  0.0000E+00  0.0000E+00  0.0000E+00
    -36.563  0.0000E+00  0.0000E+00  0.0000E+00  0.0000E+00  0.0000E+00  0.0000E+00  0.0000E+00  0.0000E+00
    -36.388  0.0000E+00  0.0000E+00  0.0000E+00  0.0000E+00  0.0000E+00  0.0000E+00  0.0000E+00  0.0000E+00
    -36.213  0.0000E+00  0.0000E+00  0.0000E+00  0.0000E+00  0.0000E+00  0.0000E+00  0.0000E+00  0.0000E+00
    -36.038  0.0000E+00  0.0000E+00  0.0000E+00  0.0000E+00  0.0000E+00  0.0000E+00  0.0000E+00  0.0000E+00
    -35.863  0.0000E+00  0.0000E+00  0.0000E+00  0.0000E+00  0.0000E+00  0.0000E+00  0.0000E+00  0.0000E+00
    -35.688  0.0000E+00  0.0000E+00  0.0000E+00  0.0000E+00  0.0000E+00  0.0000E+00  0.0000E+00  0.0000E+00
    -35.513  0.0000E+00  0.0000E+00  0.0000E+00  0.0000E+00  0.0000E+00  0.0000E+00  0.0000E+00  0.0000E+00
    -35.338  0.0000E+00  0.0000E+00  0.0000E+00  0.0000E+00  0.0000E+00  0.0000E+00  0.0000E+00  0.0000E+00
    -35.163  0.0000E+00  0.0000E+00  0.0000E+00  0.0000E+00  0.0000E+00  0.0000E+00  0.0000E+00  0.0000E+00
    -34.988  0.0000E+00  0.0000E+00  0.0000E+00  0.0000E+00  0.0000E+00  0.0000E+00  0.0000E+00  0.0000E+00
    -34.813  0.0000E+00  0.0000E+00  0.0000E+00  0.0000E+00  0.0000E+00  0.0000E+00  0.0000E+00  0.0000E+00
    -34.638  0.0000E+00  0.0000E+00  0.0000E+00  0.0000E+00  0.0000E+00  0.0000E+00  0.0000E+00  0.0000E+00
    -34.463  0.0000E+00  0.0000E+00  0.0000E+00  0.0000E+00  0.0000E+00  0.0000E+00  0.0000E+00  0.0000E+00
    -34.288  0.0000E+00  0.0000E+00  0.0000E+00  0.0000E+00  0.0000E+00  0.0000E+00  0.0000E+00  0.0000E+00
    -34.113  0.0000E+00  0.0000E+00  0.0000E+00  0.0000E+00  0.0000E+00  0.0000E+00  0.0000E+00  0.0000E+00
    -33.938  0.0000E+00  0.0000E+00  0.0000E+00  0.0000E+00  0.0000E+00  0.0000E+00  0.0000E+00  0.0000E+00
    -33.763  0.0000E+00  0.0000E+00  0.0000E+00  0.0000E+00  0.0000E+00  0.0000E+00  0.0000E+00  0.0000E+00
    -33.588  0.0000E+00  0.0000E+00  0.0000E+00  0.0000E+00  0.0000E+00  0.0000E+00  0.0000E+00  0.0000E+00
    -33.413  0.0000E+00  0.0000E+00  0.0000E+00  0.0000E+00  0.0000E+00  0.0000E+00  0.0000E+00  0.0000E+00
    -33.238  0.0000E+00  0.0000E+00  0.0000E+00  0.0000E+00  0.0000E+00  0.0000E+00  0.0000E+00  0.0000E+00
    -33.063  0.0000E+00  0.0000E+00  0.0000E+00  0.0000E+00  0.0000E+00  0.0000E+00  0.0000E+00  0.0000E+00
    -32.888  0.0000E+00  0.0000E+00  0.0000E+00  0.0000E+00  0.0000E+00  0.0000E+00  0.0000E+00  0.0000E+00
    -32.713  0.0000E+00  0.0000E+00  0.0000E+00  0.0000E+00  0.0000E+00  0.0000E+00  0.0000E+00  0.0000E+00
    -32.539  0.0000E+00  0.0000E+00  0.0000E+00  0.0000E+00  0.0000E+00  0.0000E+00  0.0000E+00  0.0000E+00
    -32.364  0.4232E-18  0.1349E-17  0.4768E-18  0.1962E-17  0.4139E-19  0.1309E-18  0.0000E+00  0.0000E+00
    -32.189  0.3857E-14  0.1017E-13  0.4348E-14  0.1479E-13  0.3849E-15  0.1008E-14  0.0000E+00  0.0000E+00
    -32.014  0.7780E-11  0.1706E-10  0.8773E-11  0.2484E-10  0.7985E-12  0.1746E-11  0.0000E+00  0.0000E+00
    -31.839  0.3549E-08  0.6491E-08  0.4006E-08  0.9460E-08  0.3888E-09  0.7132E-09  0.0000E+00  0.0000E+00
    -31.664  0.3737E-06  0.5719E-06  0.4230E-06  0.8360E-06  0.4709E-07  0.7306E-07  0.0000E+00  0.0000E+00
    -31.489  0.9377E-05  0.1206E-04  0.1068E-04  0.1775E-04  0.1538E-05  0.2037E-05  0.0000E+00  0.0000E+00
    -31.314  0.5847E-04  0.6354E-04  0.6753E-04  0.9496E-04  0.1454E-04  0.1654E-04  0.0000E+00  0.0000E+00
    -31.139  0.9462E-04  0.8723E-04  0.1125E-03  0.1346E-03  0.4081E-04  0.3987E-04  0.0000E+00  0.0000E+00
    -30.964  0.4102E-04  0.3217E-04  0.5166E-04  0.5285E-04  0.3332E-04  0.2786E-04  0.0000E+00  0.0000E+00
    -30.789  0.4957E-05  0.3342E-05  0.6893E-05  0.6091E-05  0.7613E-05  0.5429E-05  0.0000E+00  0.0000E+00
    -30.614  0.1903E-06  0.1148E-06  0.2961E-06  0.2313E-06  0.4789E-06  0.2935E-06  0.0000E+00  0.0000E+00
    -30.439  0.3154E-08  0.1821E-08  0.4874E-08  0.3515E-08  0.9202E-08  0.5062E-08  0.0000E+00  0.0000E+00
    -30.264  0.1423E-09  0.8288E-10  0.9001E-10  0.7929E-10  0.9652E-10  0.6100E-10  0.0000E+00  0.0000E+00
    -30.089  0.2274E-10  0.1041E-10  0.9204E-11  0.8675E-11  0.9954E-11  0.8692E-11  0.0000E+00  0.0000E+00
    -29.914  0.1263E-11  0.3816E-12  0.3855E-12  0.3365E-12  0.8683E-12  0.7381E-12  0.0000E+00  0.0000E+00
    -29.739  0.2080E-13  0.3591E-14  0.4566E-14  0.3566E-14  0.1902E-13  0.1556E-13  0.0000E+00  0.0000E+00
    -29.564  0.9342E-16  0.9075E-17  0.1565E-16  0.1077E-16  0.9826E-16  0.7727E-16  0.0000E+00  0.0000E+00
    -29.389  0.1041E-18  0.6488E-20  0.1491E-19  0.9212E-20  0.1163E-18  0.8779E-19  0.0000E+00  0.0000E+00
    -29.214  0.2710E-22  0.1285E-23  0.3623E-23  0.2059E-23  0.3094E-22  0.2243E-22  0.0000E+00  0.0000E+00
    -29.039  0.0000E+00  0.0000E+00  0.0000E+00  0.0000E+00  0.0000E+00  0.0000E+00  0.0000E+00  0.0000E+00
    -28.864  0.0000E+00  0.0000E+00  0.0000E+00  0.0000E+00  0.0000E+00  0.0000E+00  0.0000E+00  0.0000E+00
    -28.689  0.0000E+00  0.0000E+00  0.0000E+00  0.0000E+00  0.0000E+00  0.0000E+00  0.0000E+00  0.0000E+00
    -28.514  0.0000E+00  0.0000E+00  0.0000E+00  0.0000E+00  0.0000E+00  0.0000E+00  0.0000E+00  0.0000E+00
    -28.339  0.0000E+00  0.0000E+00  0.0000E+00  0.0000E+00  0.0000E+00  0.0000E+00  0.0000E+00  0.0000E+00
    -28.164  0.0000E+00  0.0000E+00  0.0000E+00  0.0000E+00  0.0000E+00  0.0000E+00  0.0000E+00  0.0000E+00
    -27.989  0.0000E+00  0.0000E+00  0.0000E+00  0.0000E+00  0.0000E+00  0.0000E+00  0.0000E+00  0.0000E+00
    -27.814  0.0000E+00  0.0000E+00  0.0000E+00  0.0000E+00  0.0000E+00  0.0000E+00  0.0000E+00  0.0000E+00
    -27.639  0.0000E+00  0.0000E+00  0.0000E+00  0.0000E+00  0.0000E+00  0.0000E+00  0.0000E+00  0.0000E+00