       N       E                     dE             d eps       ncg     rms          rms(c)
DAV:   1     0.444970322426E+04    0.44497E+04   -0.10977E+05   760   0.165E+03
DAV:   2     0.973752090894E+03   -0.34760E+04   -0.31804E+04   780   0.520E+02
DAV:   3    -0.141525050108E+03   -0.11153E+04   -0.10788E+04   960   0.248E+02
DAV:   4    -0.347368712671E+03   -0.20584E+03   -0.19924E+03  1140   0.101E+02
DAV:   5    -0.363547686111E+03   -0.16179E+02   -0.15168E+02  1340   0.306E+01    0.865E+01
DAV:   6    -0.625340668757E+03   -0.26179E+03   -0.61320E+03  1160   0.166E+02    0.318E+02
DAV:   7    -0.442732149200E+03    0.18261E+03   -0.18508E+03  1320   0.183E+02    0.194E+02
DAV:   8    -0.906945058921E+03   -0.46421E+03   -0.27922E+03  1300   0.155E+02    0.943E+02
DAV:   9    -0.112461911342E+04   -0.21767E+03   -0.11923E+03  1340   0.933E+01    0.145E+03
DAV:  10    -0.107368249929E+04    0.50937E+02   -0.20628E+02  1280   0.310E+01    0.149E+03
DAV:  11    -0.632180964553E+03    0.44150E+03   -0.28184E+02  1040   0.395E+01    0.149E+03
DAV:  12    -0.358978708564E+03    0.27320E+03   -0.66226E+02  1280   0.508E+01    0.558E+02
DAV:  13    -0.376139176215E+03   -0.17160E+02   -0.23242E+02  1300   0.276E+01    0.875E+02
DAV:  14    -0.360947811137E+03    0.15191E+02   -0.25330E+02  1220   0.209E+01    0.117E+02
DAV:  15    -0.340495960986E+03    0.20452E+02   -0.47855E+02   960   0.786E+01    0.751E+01
DAV:  16    -0.348126555363E+03   -0.76306E+01   -0.43240E+02  1060   0.564E+01    0.794E+01
DAV:  17    -0.321614869530E+03    0.26512E+02   -0.13234E+02  1060   0.504E+01    0.619E+01
DAV:  18    -0.313897484674E+03    0.77174E+01   -0.15990E+02   880   0.340E+01    0.730E+01
DAV:  19    -0.309598125129E+03    0.42994E+01   -0.16803E+02   940   0.298E+01    0.591E+01
DAV:  20    -0.310198570158E+03   -0.60045E+00   -0.85732E+01  1060   0.222E+01    0.506E+01
DAV:  21    -0.299344900621E+03    0.10854E+02   -0.20892E+01  1200   0.122E+01    0.419E+01
DAV:  22    -0.298884992057E+03    0.45991E+00   -0.54959E+01  1020   0.116E+01    0.442E+01
DAV:  23    -0.293919451593E+03    0.49655E+01   -0.33623E+01  1060   0.998E+00    0.271E+01
DAV:  24    -0.293359932989E+03    0.55952E+00   -0.14979E+01  1100   0.659E+00    0.256E+01
DAV:  25    -0.293661539778E+03   -0.30161E+00   -0.82218E+00  1140   0.519E+00    0.297E+01
DAV:  26    -0.293977570604E+03   -0.31603E+00   -0.31627E-01  1220   0.156E+00    0.310E+01
DAV:  27    -0.292455883861E+03    0.15217E+01   -0.10850E+00   940   0.247E+00    0.277E+01
DAV:  28    -0.291848508631E+03    0.60738E+00   -0.22666E+00  1160   0.295E+00    0.260E+01
DAV:  29    -0.291877003075E+03   -0.28494E-01   -0.14968E+00  1080   0.249E+00    0.260E+01
DAV:  30    -0.291753595849E+03    0.12341E+00   -0.10999E-01  1280   0.823E-01
   1 F= -.29175360E+03 E0= -.29141865E+03  d E =-.291754E+03  mag=     7.6534
       N       E                     dE             d eps       ncg     rms          rms(c)
DAV:   1    -0.290422615124E+03    0.14544E+01   -0.24830E+02   860   0.587E+01    0.268E+01
DAV:   2    -0.511353220696E+03   -0.22093E+03   -0.13421E+03  1300   0.758E+01    0.334E+02
DAV:   3    -0.464659013341E+03    0.46694E+02   -0.27335E+02  1260   0.392E+01    0.943E+02
DAV:   4    -0.321526176056E+03    0.14313E+03   -0.14911E+02  1120   0.334E+01    0.854E+01
DAV:   5    -0.295377610303E+03    0.26149E+02   -0.18847E+02   980   0.456E+01    0.439E+01
DAV:   6    -0.299091264892E+03   -0.37137E+01   -0.21232E+02  1200   0.303E+01    0.489E+01
DAV:   7    -0.306478285296E+03   -0.73870E+01   -0.21783E+02  1140   0.260E+01    0.569E+01
DAV:   8    -0.289048856705E+03    0.17429E+02   -0.56378E+01  1160   0.152E+01    0.360E+01
DAV:   9    -0.290249112054E+03   -0.12003E+01   -0.29061E+01   980   0.116E+01    0.384E+01
DAV:  10    -0.283821583824E+03    0.64275E+01   -0.19647E+01  1100   0.726E+00    0.235E+01
DAV:  11    -0.283909263215E+03   -0.87679E-01   -0.92807E+00  1080   0.599E+00    0.211E+01
DAV:  12    -0.283908682398E+03    0.58082E-03   -0.77163E-01  1220   0.270E+00    0.210E+01
DAV:  13    -0.283863907229E+03    0.44775E-01   -0.80973E-02  1240   0.774E-01    0.211E+01
DAV:  14    -0.283384949230E+03    0.47896E+00   -0.44073E-01  1040   0.152E+00    0.199E+01
DAV:  15    -0.283375732595E+03    0.92166E-02   -0.31539E-01  1100   0.133E+00    0.201E+01
DAV:  16    -0.283315956260E+03    0.59776E-01   -0.24476E+00   940   0.297E+00    0.186E+01
DAV:  17    -0.282920975951E+03    0.39498E+00   -0.17225E+00  1180   0.277E+00    0.163E+01
DAV:  18    -0.283145808677E+03   -0.22483E+00   -0.90517E-01  1040   0.218E+00    0.172E+01
DAV:  19    -0.283299805567E+03   -0.15400E+00   -0.33394E-01  1200   0.107E+00    0.179E+01
DAV:  20    -0.283379685321E+03   -0.79880E-01   -0.33867E-02  1180   0.412E-01    0.183E+01
DAV:  21    -0.283424832972E+03   -0.45148E-01   -0.50872E-01   920   0.845E-01    0.176E+01
DAV:  22    -0.283042335632E+03    0.38250E+00   -0.20418E+00   840   0.271E+00    0.172E+01
DAV:  23    -0.282414844242E+03    0.62749E+00   -0.41752E+00  1140   0.268E+00    0.155E+01
DAV:  24    -0.282716587209E+03   -0.30174E+00   -0.23483E-01  1080   0.129E+00    0.156E+01
DAV:  25    -0.282168979860E+03    0.54761E+00   -0.16144E-01   840   0.854E-01    0.158E+01
DAV:  26    -0.281817759986E+03    0.35122E+00   -0.22916E-01  1220   0.694E-01    0.158E+01
DAV:  27    -0.282127963435E+03   -0.31020E+00   -0.15398E-01   880   0.530E-01    0.156E+01
DAV:  28    -0.281862251388E+03    0.26571E+00   -0.54270E-02   900   0.457E-01    0.157E+01
DAV:  29    -0.281844942489E+03    0.17309E-01   -0.29091E-02  1320   0.291E-01    0.157E+01
DAV:  30    -0.281801987972E+03    0.42955E-01   -0.11454E-02   900   0.196E-01
   2 F= -.28180199E+03 E0= -.28149602E+03  d E =0.995161E+01  mag=     7.4350
       N       E                     dE             d eps       ncg     rms          rms(c)
DAV:   1    -0.282509684401E+03   -0.66474E+00   -0.21696E+00   800   0.226E+00    0.153E+01
DAV:   2    -0.308748815345E+03   -0.26239E+02   -0.11883E+02  1020   0.264E+01    0.775E+01
DAV:   3    -0.307731842488E+03    0.10170E+01   -0.23393E+02   960   0.350E+01    0.618E+01
DAV:   4    -0.287316148074E+03    0.20416E+02   -0.15650E+02  1220   0.261E+01    0.364E+01
DAV:   5    -0.285742129200E+03    0.15740E+01   -0.76998E+01  1160   0.143E+01    0.221E+01
DAV:   6    -0.284269580244E+03    0.14725E+01   -0.16060E+01   980   0.838E+00    0.205E+01
DAV:   7    -0.284019737943E+03    0.24984E+00   -0.59708E+00  1180   0.476E+00    0.169E+01
DAV:   8    -0.284006242705E+03    0.13495E-01   -0.18491E-01  1200   0.134E+00    0.169E+01
DAV:   9    -0.283975181998E+03    0.31061E-01   -0.17617E+00  1040   0.235E+00    0.145E+01
DAV:  10    -0.284037201856E+03   -0.62020E-01   -0.45609E+00  1140   0.389E+00    0.171E+01
DAV:  11    -0.284317735612E+03   -0.28053E+00   -0.72453E+00  1040   0.362E+00    0.173E+01
DAV:  12    -0.283724913185E+03    0.59282E+00   -0.52941E+00  1000   0.358E+00    0.112E+01
DAV:  13    -0.283946102201E+03   -0.22119E+00   -0.10689E+00  1260   0.222E+00    0.117E+01
DAV:  14    -0.284087510005E+03   -0.14141E+00   -0.10412E+00  1100   0.197E+00    0.115E+01
DAV:  15    -0.283973488167E+03    0.11402E+00   -0.24171E-01  1140   0.117E+00    0.117E+01
DAV:  16    -0.283941570292E+03    0.31918E-01   -0.22384E-02  1220   0.462E-01    0.117E+01
DAV:  17    -0.283627146420E+03    0.31442E+00   -0.30537E-01   820   0.135E+00    0.126E+01
DAV:  18    -0.282436794851E+03    0.11904E+01   -0.13730E+00   840   0.224E+00    0.131E+01
DAV:  19    -0.282364161189E+03    0.72634E-01   -0.23859E-01  1240   0.122E+00    0.135E+01
DAV:  20    -0.282355919416E+03    0.82418E-02   -0.21626E-02  1240   0.418E-01    0.135E+01
DAV:  21    -0.282301436136E+03    0.54483E-01   -0.54678E-03  1040   0.153E-01    0.135E+01
DAV:  22    -0.282300129285E+03    0.13069E-02   -0.10401E-03   920   0.924E-02    0.134E+01
DAV:  23    -0.281775134567E+03    0.52499E+00   -0.89829E-02   800   0.600E-01    0.140E+01
DAV:  24    -0.280727547534E+03    0.10476E+01   -0.75094E-01   780   0.152E+00    0.150E+01
DAV:  25    -0.279817490776E+03    0.91006E+00   -0.67469E-01   940   0.134E+00    0.146E+01
DAV:  26    -0.281357745600E+03   -0.15403E+01   -0.71855E-01   960   0.165E+00    0.129E+01
DAV:  27    -0.282138150078E+03   -0.78040E+00   -0.45362E-01   900   0.144E+00    0.121E+01
DAV:  28    -0.282596579542E+03   -0.45843E+00   -0.41495E-01  1060   0.141E+00    0.112E+01
DAV:  29    -0.282839430040E+03   -0.24285E+00   -0.37333E-01  1100   0.127E+00    0.109E+01
DAV:  30    -0.282759313717E+03    0.80116E-01   -0.30136E-01  1140   0.128E+00
   3 F= -.28275931E+03 E0= -.28258785E+03  d E =0.899428E+01  mag=     7.7629
       N       E                     dE             d eps       ncg     rms          rms(c)
DAV:   1    -0.283029671158E+03   -0.19024E+00   -0.38525E+01   820   0.241E+01    0.121E+01
DAV:   2    -0.383217195342E+03   -0.10019E+03   -0.45928E+02  1240   0.427E+01    0.930E+01
DAV:   3    -0.281292457145E+03    0.10192E+03   -0.96776E+01  1040   0.397E+01    0.335E+01
DAV:   4    -0.285238270830E+03   -0.39458E+01   -0.70527E+01  1300   0.148E+01    0.220E+01
DAV:   5    -0.285034247557E+03    0.20402E+00   -0.25852E+01  1200   0.106E+01    0.171E+01
DAV:   6    -0.285947536899E+03   -0.91329E+00   -0.25746E+01   900   0.758E+00    0.247E+01
DAV:   7    -0.284161383555E+03    0.17862E+01   -0.10404E+01  1080   0.705E+00    0.149E+01
DAV:   8    -0.283458947877E+03    0.70244E+00   -0.51795E+00   940   0.412E+00    0.133E+01
DAV:   9    -0.283561285703E+03   -0.10234E+00   -0.40495E-01  1340   0.146E+00    0.137E+01
DAV:  10    -0.283731476841E+03   -0.17019E+00   -0.34333E+00   880   0.335E+00    0.111E+01
DAV:  11    -0.283999807992E+03   -0.26833E+00   -0.23522E+00  1200   0.286E+00    0.800E+00
DAV:  12    -0.284189096739E+03   -0.18929E+00   -0.14822E+00  1000   0.229E+00    0.796E+00
DAV:  13    -0.284238144902E+03   -0.49048E-01   -0.33244E-01  1220   0.140E+00    0.682E+00
DAV:  14    -0.284240399477E+03   -0.22546E-02   -0.35160E-02  1320   0.502E-01    0.690E+00
DAV:  15    -0.284184606262E+03    0.55793E-01   -0.10193E-01   940   0.841E-01    0.667E+00
DAV:  16    -0.284209222958E+03   -0.24617E-01   -0.54867E-02  1080   0.537E-01    0.673E+00
DAV:  17    -0.284233389280E+03   -0.24166E-01   -0.36802E-02  1100   0.359E-01    0.701E+00
DAV:  18    -0.284234777806E+03   -0.13885E-02   -0.12102E-02  1100   0.211E-01    0.708E+00
DAV:  19    -0.284181902312E+03    0.52875E-01   -0.19039E-01   820   0.726E-01    0.654E+00
DAV:  20    -0.284182152694E+03   -0.25038E-03   -0.15538E-02  1300   0.321E-01    0.651E+00
DAV:  21    -0.284147160444E+03    0.34992E-01   -0.29148E-02   920   0.320E-01    0.657E+00
DAV:  22    -0.284034609749E+03    0.11255E+00   -0.17246E-01   900   0.653E-01    0.655E+00
DAV:  23    -0.283936669135E+03    0.97941E-01   -0.14067E-01  1140   0.567E-01    0.646E+00
DAV:  24    -0.283606142100E+03    0.33053E+00   -0.81565E-01   840   0.137E+00    0.610E+00
DAV:  25    -0.283110505915E+03    0.49564E+00   -0.14382E+00  1040   0.156E+00    0.626E+00
DAV:  26    -0.283116478151E+03   -0.59722E-02   -0.16120E-01  1240   0.810E-01    0.609E+00
DAV:  27    -0.283157079627E+03   -0.40601E-01   -0.13852E-02  1140   0.287E-01    0.610E+00
DAV:  28    -0.283214766197E+03   -0.57687E-01   -0.17466E-02   960   0.282E-01    0.633E+00
DAV:  29    -0.283247759595E+03   -0.32993E-01   -0.26248E-02  1120   0.256E-01    0.614E+00
DAV:  30    -0.283246431926E+03    0.13277E-02   -0.43182E-02   880   0.296E-01
   4 F= -.28324643E+03 E0= -.28309342E+03  d E =-.487118E+00  mag=     9.1715
       N       E                     dE             d eps       ncg     rms          rms(c)
DAV:   1    -0.282878404003E+03    0.36936E+00   -0.39205E+01   800   0.254E+01    0.677E+00
DAV:   2    -0.288980425894E+03   -0.61020E+01   -0.49360E+01  1160   0.132E+01    0.462E+01
DAV:   3    -0.284014856632E+03    0.49656E+01   -0.58814E+01   940   0.141E+01    0.143E+01
DAV:   4    -0.284514598017E+03   -0.49974E+00   -0.25364E+01  1100   0.893E+00    0.203E+01
DAV:   5    -0.283028456913E+03    0.14861E+01   -0.14451E+01  1140   0.595E+00    0.980E+00
DAV:   6    -0.282695069203E+03    0.33339E+00   -0.19628E+00  1120   0.340E+00    0.756E+00
DAV:   7    -0.282501628713E+03    0.19344E+00   -0.11191E+00   900   0.270E+00    0.733E+00
DAV:   8    -0.282343459913E+03    0.15817E+00   -0.92554E-01  1120   0.225E+00    0.653E+00
DAV:   9    -0.282291828013E+03    0.51632E-01   -0.30745E-01  1100   0.141E+00    0.590E+00
DAV:  10    -0.282286702043E+03    0.51260E-02   -0.35368E-02  1280   0.638E-01    0.567E+00
DAV:  11    -0.282495599870E+03   -0.20890E+00   -0.30658E-01  1060   0.161E+00    0.523E+00
DAV:  12    -0.282584242609E+03   -0.88643E-01   -0.14619E+00  1100   0.269E+00    0.486E+00
DAV:  13    -0.282400554893E+03    0.18369E+00   -0.34101E-01  1140   0.164E+00    0.488E+00
DAV:  14    -0.282402454667E+03   -0.18998E-02   -0.47137E-02  1220   0.694E-01    0.504E+00
DAV:  15    -0.282348241550E+03    0.54213E-01   -0.11308E-02  1360   0.282E-01    0.459E+00
DAV:  16    -0.282204555707E+03    0.14369E+00   -0.17228E-01  1020   0.108E+00    0.308E+00
DAV:  17    -0.282268017286E+03   -0.63462E-01   -0.11358E-01  1000   0.105E+00    0.287E+00
DAV:  18    -0.282431188774E+03   -0.16317E+00   -0.93758E-02  1000   0.700E-01    0.311E+00
DAV:  19    -0.282393080767E+03    0.38108E-01   -0.33191E-02  1280   0.404E-01    0.273E+00
DAV:  20    -0.282541811070E+03   -0.14873E+00   -0.90468E-02   960   0.637E-01    0.254E+00
DAV:  21    -0.282588078414E+03   -0.46267E-01   -0.28848E-02  1280   0.402E-01    0.271E+00
DAV:  22    -0.282586870141E+03    0.12083E-02   -0.22707E-03  1040   0.154E-01    0.272E+00
DAV:  23    -0.282589994046E+03   -0.31239E-02   -0.36907E-04   720   0.539E-02    0.270E+00
DAV:  24    -0.282570206767E+03    0.19787E-01   -0.13020E-03   760   0.859E-02    0.274E+00
DAV:  25    -0.282531160171E+03    0.39047E-01   -0.34563E-03   980   0.130E-01    0.283E+00
DAV:  26    -0.282572672375E+03   -0.41512E-01   -0.28728E-03   880   0.121E-01    0.287E+00
DAV:  27    -0.282611011399E+03   -0.38339E-01   -0.33589E-02   920   0.409E-01    0.261E+00
DAV:  28    -0.282866187111E+03   -0.25518E+00   -0.16093E-01   880   0.855E-01    0.223E+00
DAV:  29    -0.283093920976E+03   -0.22773E+00   -0.19382E-01  1160   0.891E-01    0.234E+00
DAV:  30    -0.283044303760E+03    0.49617E-01   -0.29438E-02  1200   0.412E-01
   5 F= -.28304430E+03 E0= -.28291052E+03  d E =-.284990E+00  mag=    11.5519
