 vasp.6.4.3 19Mar24 (build Jul 09 2024 15:45:28) complex                        
  
 executed on             LinuxIFC date 2024.10.29  12:19:51
 running   40 mpi-ranks, on    1 nodes
 distrk:  each k-point on   40 cores,    1 groups
 distr:  one band on NCORE=   4 cores,   10 groups


--------------------------------------------------------------------------------------------------------


 INCAR:
   ENCUT = 400.000000
   POTIM = 0.150000
   EDIFF = 1.00e-04
   EDIFFG = -1.00e-01
   ALGO = Normal
   GGA = PE
   PREC = Normal
   IBRION = 2
   IDIPOL = 3
   ISMEAR = 0
   ISPIN = 2
   LMAXMIX = 6
   LORBIT = 10
   NELM = 30
   NELMIN = 5
   NPAR = 10
   NSIM = 10
   NSW = 5
   KGAMMA = .TRUE.
   LASPH = .TRUE.
   LCHARG = .FALSE.
   LDIPOL = .TRUE.
   LWAVE = .FALSE.
   LREAL = .TRUE.
   MAGMOM = 8*1.0000 26*0.0000 1*2.0000

 POTCAR:    PAW_PBE Cr_pv 02Aug2007               
 POTCAR:    PAW_PBE La 06Sep2000                  
 POTCAR:    PAW_PBE O 08Apr2002                   
 POTCAR:    PAW_PBE Cr_pv 02Aug2007               
   SHA256 =  c9a7df34d3cdbacf1090e328ef39c0b420964e11c23f63548d1ac9dd218cdba0 Cr_pv/POTCAR          
   COPYR  = (c) Copyright 02Aug2007 Georg Kresse                                                    
   COPYR  = This file is part of the software VASP. Any use, copying, and all other rights are regul
   COPYR  = If you do not have a valid VASP license, you may not use, copy or distribute this file. 
   VRHFIN =Cr : p6d5s1                                                                              
   LEXCH  = PE                                                                                      
   EATOM  =  1647.9177 eV,  121.1185 Ry                                                             
                                                                                                    
   TITEL  = PAW_PBE Cr_pv 02Aug2007                                                                 
   LULTRA =        F    use ultrasoft PP ?                                                          
   IUNSCR =        1    unscreen: 0-lin 1-nonlin 2-no                                               
   RPACOR =    2.080    partial core radius                                                         
   POMASS =   51.996; ZVAL   =   12.000    mass and valenz                                          
   RCORE  =    2.300    outmost cutoff radius                                                       
   RWIGS  =    2.500; RWIGS  =    1.323    wigner-seitz radius (au A)                               
   ENMAX  =  265.681; ENMIN  =  199.261 eV                                                          
   ICORE  =        3    local potential                                                             
   LCOR   =        T    correct aug charges                                                         
   LPAW   =        T    paw PP                                                                      
   EAUG   =  519.424                                                                                
   DEXC   =    0.000                                                                                
   RMAX   =    2.356    core radius for proj-oper                                                   
   RAUG   =    1.300    factor for augmentation sphere                                              
   RDEP   =    2.447    radius for radial grids                                                     
   RDEPT  =    1.882    core radius for aug-charge                                                  
                                                                                                    
   Atomic configuration                                                                             
    8 entries                                                                                       
     n  l   j            E        occ.                                                              
     1  0  0.50     -5880.4963   2.0000                                                             
     2  0  0.50      -667.0865   2.0000                                                             
     2  1  1.50      -560.6250   6.0000                                                             
     3  0  0.50       -73.9860   2.0000                                                             
     3  1  1.50       -45.4378   6.0000                                                             
     3  2  2.50        -2.9137   5.0000                                                             
     4  0  0.50        -4.0071   1.0000                                                             
     4  3  2.50        -1.3606   0.0000                                                             
   Description                                                                                      
     l       E           TYP  RCUT    TYP  RCUT                                                     
     1    -45.4377911     23  2.000                                                                 
     1      1.3605826     23  2.000                                                                 
     2     -2.9136672     23  2.300                                                                 
     2     -4.2742498     23  2.300                                                                 
     0     -4.0071320     23  2.300                                                                 
     0      9.4498803     23  2.300                                                                 
     3      2.7211652     23  2.300                                                                 
  local pseudopotential read in
  partial core-charges read in
  partial kinetic energy density read in
  atomic valenz-charges read in
  non local Contribution for L=           1  read in
    real space projection operators read in
  non local Contribution for L=           1  read in
    real space projection operators read in
  non local Contribution for L=           2  read in
    real space projection operators read in
  non local Contribution for L=           2  read in
    real space projection operators read in
  non local Contribution for L=           0  read in
    real space projection operators read in
  non local Contribution for L=           0  read in
    real space projection operators read in
    PAW grid and wavefunctions read in
 
   number of l-projection  operators is LMAX  =           6
   number of lm-projection operators is LMMAX =          18
 
 POTCAR:    PAW_PBE La 06Sep2000                  
   SHA256 =  b7aad99517e50aeb53363b20a29bb0dfa896544080812fb23322f071df953199 La/POTCAR             
   COPYR  = (c) Copyright 06Sep2000 Georg Kresse                                                    
   COPYR  = This file is part of the software VASP. Any use, copying, and all other rights are regul
   COPYR  = If you do not have a valid VASP license, you may not use, copy or distribute this file. 
   VRHFIN =La : [core=Kr4d]                                                                         
   LEXCH  = PE                                                                                      
   EATOM  =   865.9763 eV,   63.6475 Ry                                                             
                                                                                                    
   TITEL  = PAW_PBE La 06Sep2000                                                                    
   LULTRA =        F    use ultrasoft PP ?                                                          
   IUNSCR =        1    unscreen: 0-lin 1-nonlin 2-no                                               
   RPACOR =    2.300    partial core radius                                                         
   POMASS =  138.900; ZVAL   =   11.000    mass and valenz                                          
   RCORE  =    2.800    outmost cutoff radius                                                       
   RWIGS  =    2.900; RWIGS  =    1.535    wigner-seitz radius (au A)                               
   ENMAX  =  219.292; ENMIN  =  164.469 eV                                                          
   RCLOC  =    1.601    cutoff for local pot                                                        
   LCOR   =        T    correct aug charges                                                         
   LPAW   =        T    paw PP                                                                      
   EAUG   =  583.575                                                                                
   DEXC   =    0.000                                                                                
   RMAX   =    2.853    core radius for proj-oper                                                   
   RAUG   =    1.300    factor for augmentation sphere                                              
   RDEP   =    2.802    radius for radial grids                                                     
   RDEPT  =    2.156    core radius for aug-charge                                                  
                                                                                                    
   Atomic configuration                                                                             
   14 entries                                                                                       
     n  l   j            E        occ.                                                              
     1  0  0.50    -38741.0879   2.0000                                                             
     2  0  0.50     -6166.6801   2.0000                                                             
     2  1  1.50     -5526.1593   6.0000                                                             
     3  0  0.50     -1319.0200   2.0000                                                             
     3  1  1.50     -1114.5963   6.0000                                                             
     3  2  2.50      -821.1793  10.0000                                                             
     4  0  0.50      -266.3851   2.0000                                                             
     4  1  1.50      -199.9276   6.0000                                                             
     4  2  2.50      -103.8239  10.0000                                                             
     5  0  0.50       -38.9172   2.0000                                                             
     6  0  0.50        -3.6792   2.0000                                                             
     5  1  1.50       -22.3948   6.0000                                                             
     5  2  2.50        -3.0911   0.9999                                                             
     4  3  2.50        -4.3603   0.0001                                                             
   Description                                                                                      
     l       E           TYP  RCUT    TYP  RCUT                                                     
     0    -38.9171645     23  2.800                                                                 
     0     -3.6792381     23  2.800                                                                 
     1    -22.3948300     23  2.500                                                                 
     1     27.2116520     23  2.500                                                                 
     2     -3.0910934     23  2.500                                                                 
     2      1.0119135     23  2.500                                                                 
     3     -4.3602911     23  2.800                                                                 
     3     -5.7208737     23  2.800                                                                 
  local pseudopotential read in
  partial core-charges read in
  partial kinetic energy density read in
  atomic valenz-charges read in
  non local Contribution for L=           0  read in
    real space projection operators read in
  non local Contribution for L=           0  read in
    real space projection operators read in
  non local Contribution for L=           1  read in
    real space projection operators read in
  non local Contribution for L=           1  read in
    real space projection operators read in
  non local Contribution for L=           2  read in
    real space projection operators read in
  non local Contribution for L=           2  read in
    real space projection operators read in
  non local Contribution for L=           3  read in
    real space projection operators read in
  non local Contribution for L=           3  read in
    real space projection operators read in
    PAW grid and wavefunctions read in
 
   number of l-projection  operators is LMAX  =           8
   number of lm-projection operators is LMMAX =          32
 
 POTCAR:    PAW_PBE O 08Apr2002                   
   SHA256 =  818f92134a0a090dccd8ba1447fa70422a3b330e708bb4f08108d8ae51209ddf O/POTCAR              
   COPYR  = (c) Copyright 08Apr2002 Georg Kresse                                                    
   COPYR  = This file is part of the software VASP. Any use, copying, and all other rights are regul
   COPYR  = If you do not have a valid VASP license, you may not use, copy or distribute this file. 
   VRHFIN =O: s2p4                                                                                  
   LEXCH  = PE                                                                                      
   EATOM  =   432.3788 eV,   31.7789 Ry                                                             
                                                                                                    
   TITEL  = PAW_PBE O 08Apr2002                                                                     
   LULTRA =        F    use ultrasoft PP ?                                                          
   IUNSCR =        1    unscreen: 0-lin 1-nonlin 2-no                                               
   RPACOR =    1.200    partial core radius                                                         
   POMASS =   16.000; ZVAL   =    6.000    mass and valenz                                          
   RCORE  =    1.520    outmost cutoff radius                                                       
   RWIGS  =    1.550; RWIGS  =    0.820    wigner-seitz radius (au A)                               
   ENMAX  =  400.000; ENMIN  =  300.000 eV                                                          
   ICORE  =        2    local potential                                                             
   LCOR   =        T    correct aug charges                                                         
   LPAW   =        T    paw PP                                                                      
   EAUG   =  605.392                                                                                
   DEXC   =    0.000                                                                                
   RMAX   =    1.553    core radius for proj-oper                                                   
   RAUG   =    1.300    factor for augmentation sphere                                              
   RDEP   =    1.550    radius for radial grids                                                     
   RDEPT  =    1.329    core radius for aug-charge                                                  
                                                                                                    
   Atomic configuration                                                                             
    4 entries                                                                                       
     n  l   j            E        occ.                                                              
     1  0  0.50      -514.6923   2.0000                                                             
     2  0  0.50       -23.9615   2.0000                                                             
     2  1  0.50        -9.0305   4.0000                                                             
     3  2  1.50        -9.5241   0.0000                                                             
   Description                                                                                      
     l       E           TYP  RCUT    TYP  RCUT                                                     
     0    -23.9615318     23  1.200                                                                 
     0     -9.5240782     23  1.200                                                                 
     1     -9.0304911     23  1.520                                                                 
     1      8.1634956     23  1.520                                                                 
     2     -9.5240782      7  1.500                                                                 
  local pseudopotential read in
  partial core-charges read in
  partial kinetic energy density read in
  kinetic energy density of atom read in
  atomic valenz-charges read in
  non local Contribution for L=           0  read in
    real space projection operators read in
  non local Contribution for L=           0  read in
    real space projection operators read in
  non local Contribution for L=           1  read in
    real space projection operators read in
  non local Contribution for L=           1  read in
    real space projection operators read in
    PAW grid and wavefunctions read in
 
   number of l-projection  operators is LMAX  =           4
   number of lm-projection operators is LMMAX =           8
 
 -----------------------------------------------------------------------------
|                                                                             |
|           W    W    AA    RRRRR   N    N  II  N    N   GGGG   !!!           |
|           W    W   A  A   R    R  NN   N  II  NN   N  G    G  !!!           |
|           W    W  A    A  R    R  N N  N  II  N N  N  G       !!!           |
|           W WW W  AAAAAA  RRRRR   N  N N  II  N  N N  G  GGG   !            |
|           WW  WW  A    A  R   R   N   NN  II  N   NN  G    G                |
|           W    W  A    A  R    R  N    N  II  N    N   GGGG   !!!           |
|                                                                             |
|     The real-space projection scheme for the treatment of the non-local     |
|     pseudopotentials has been switched on but on file POTCAR I have not     |
|     found any entries, signalling me that you have never performed a        |
|     real-space optimization of all non-local projectors! BE WARNED that     |
|     a calculation using the real-space projection scheme together with      |
|     non-local projectors which were not real-space optimized (according     |
|     to the plane-wave cutoff used in this calculation) might give more      |
|     or less inaccurate results. I hope you know what you are doing.         |
|                                                                             |
 -----------------------------------------------------------------------------

  PAW_PBE Cr_pv 02Aug2007               :
 energy of atom  1       EATOM=-1647.9177
 kinetic energy error for atom=    0.0284 (will be added to EATOM!!)
  PAW_PBE La 06Sep2000                  :
 energy of atom  2       EATOM= -865.9763
 kinetic energy error for atom=    0.0031 (will be added to EATOM!!)
  PAW_PBE O 08Apr2002                   :
 energy of atom  3       EATOM= -432.3788
 kinetic energy error for atom=    0.1156 (will be added to EATOM!!)
 
 
 POSCAR: Cr La O
  positions in cartesian coordinates
  No initial velocities read in


 exchange-correlation table for PE
   RHO(1)=    0.500       N(1)  =     2000
   RHO(2)=  100.500       N(2)  =     4000

 VTST: version 4.1, (05/19/21)

 CHAIN: initializing optimizer
 
 OPT: Using VASP Conjugate-Gradient optimizer
 CHAIN: Read ICHAIN            0
 
 POSCAR: Cr La O
  positions in cartesian coordinates
  No initial velocities read in
 


--------------------------------------------------------------------------------------------------------


 ion  position               nearest neighbor table
   1  0.000  0.500  0.003-  16 1.91  18 1.97  15 2.18  10 3.23   9 3.35   9 3.42
   2  0.500  0.000  0.003-  15 1.91  17 1.97  16 2.18   9 3.23  10 3.35  10 3.42
   3  0.500  0.000  0.136-  20 1.91  21 1.91  17 1.97  23 1.97  22 2.18  19 2.18   9 3.23  11 3.23
                            10 3.35  12 3.35  12 3.42  10 3.42
   4  0.000  0.500  0.136-  19 1.91  22 1.91  18 1.97  24 1.97  20 2.18  21 2.18  10 3.23  12 3.23
                            11 3.35   9 3.35   9 3.42  11 3.42
   5  1.000  0.499  0.269-  30 1.90  28 1.97  25 2.00  24 2.01  27 2.13  26 2.13  14 3.25  12 3.26
                            13 3.34  11 3.37
   6  0.500  0.999  0.269-  29 1.90  27 1.97  26 2.00  23 2.01  28 2.13  25 2.13  13 3.25  11 3.26
                            14 3.34  12 3.37
   7  0.489  0.003  0.400-  33 1.89  29 1.97  32 2.02  34 2.12  31 2.16  13 3.23  14 3.34  14 3.35

   8  0.011  0.503  0.400-  34 1.89  30 1.97  31 2.02  35 2.04  33 2.12  32 2.16  14 3.23  13 3.34
                            13 3.35
   9  0.508  0.549  0.070-  18 2.43  16 2.46  19 2.46  17 2.56  15 2.65  20 2.65  22 2.70   3 3.23
                             2 3.23   4 3.35   1 3.35   4 3.42   1 3.42
  10  0.992  0.049  0.070-  17 2.43  15 2.46  20 2.46  18 2.56  19 2.65  16 2.65  21 2.70   4 3.23
                             1 3.23   3 3.35   2 3.35   3 3.42   2 3.42
  11  0.492  0.451  0.202-  25 2.40  24 2.43  22 2.46  23 2.56  28 2.64  21 2.65  26 2.66  19 2.70
                             3 3.23   6 3.26   4 3.35   5 3.37   4 3.42
  12  0.008  0.951  0.202-  26 2.40  23 2.43  21 2.46  24 2.56  27 2.64  22 2.65  25 2.66  20 2.70
                             4 3.23   5 3.26   3 3.35   6 3.37   3 3.42
  13  0.510  0.544  0.336-  31 2.36  28 2.43  30 2.45  34 2.59  32 2.59  29 2.68  27 2.76  25 2.76
                             7 3.23   6 3.25   5 3.34   8 3.34   8 3.35
  14  0.990  0.044  0.336-  32 2.36  27 2.43  29 2.45  33 2.59  31 2.59  30 2.68  28 2.76  26 2.76
                             8 3.23   5 3.25   6 3.34   7 3.34   7 3.35
  15  0.774  0.807  0.014-   2 1.91   1 2.18  10 2.46   9 2.65
  16  0.726  0.307  0.014-   1 1.91   2 2.18   9 2.46  10 2.65
  17  0.425  0.987  0.070-   3 1.97   2 1.97  10 2.43   9 2.56
  18  0.075  0.487  0.070-   4 1.97   1 1.97   9 2.43  10 2.56
  19  0.726  0.307  0.126-   4 1.91   3 2.18   9 2.46  10 2.65  11 2.70
  20  0.774  0.807  0.126-   3 1.91   4 2.18  10 2.46   9 2.65  12 2.70
  21  0.226  0.193  0.146-   3 1.91   4 2.18  12 2.46  11 2.65  10 2.70
  22  0.274  0.693  0.146-   4 1.91   3 2.18  11 2.46  12 2.65   9 2.70
  23  0.575  0.013  0.202-   3 1.97   6 2.01  12 2.43  11 2.56
  24  0.925  0.513  0.202-   4 1.97   5 2.01  11 2.43  12 2.56
  25  0.289  0.696  0.256-   5 2.00   6 2.13  11 2.40  12 2.66  13 2.76
  26  0.211  0.196  0.256-   6 2.00   5 2.13  12 2.40  11 2.66  14 2.76
  27  0.792  0.808  0.278-   6 1.97   5 2.13  14 2.43  12 2.64  13 2.76
  28  0.708  0.308  0.278-   5 1.97   6 2.13  13 2.43  11 2.64  14 2.76
  29  0.430  0.004  0.333-   6 1.90   7 1.97  14 2.45  13 2.68
  30  0.070  0.504  0.333-   5 1.90   8 1.97  13 2.45  14 2.68
  31  0.719  0.301  0.388-   8 2.02   7 2.16  13 2.36  14 2.59
  32  0.781  0.801  0.388-   7 2.02   8 2.16  14 2.36  13 2.59
  33  0.213  0.192  0.408-   7 1.89   8 2.12  14 2.59
  34  0.287  0.692  0.408-   8 1.89   7 2.12  13 2.59
  35  0.000  0.500  0.470-   8 2.04
 
  LATTYP: Found a simple orthorhombic cell.
 ALAT       =     5.5367000000
 B/A-ratio  =     1.0380370979
 C/A-ratio  =     5.2541031011
  
  Lattice vectors:
  
 A1 = (   5.5367000000,   0.0000000000,   0.0000000000)
 A2 = (   0.0000000000,   5.7473000000,   0.0000000000)
 A3 = (   0.0000000000,   0.0000000000,  29.0903926400)


Analysis of symmetry for initial positions (statically):
=====================================================================
 Subroutine PRICEL returns:
 Original cell was already a primitive cell.
 

 Routine SETGRP: Setting up the symmetry group for a 
 simple orthorhombic supercell.


 Subroutine GETGRP returns: Found  1 space group operations
 (whereof  1 operations were pure point group operations)
 out of a pool of  8 trial point group operations.


The static configuration has the point symmetry C_1 .


Analysis of symmetry for dynamics (positions and initial velocities):
=====================================================================
 Subroutine PRICEL returns:
 Original cell was already a primitive cell.
 

 Routine SETGRP: Setting up the symmetry group for a 
 simple orthorhombic supercell.


 Subroutine GETGRP returns: Found  1 space group operations
 (whereof  1 operations were pure point group operations)
 out of a pool of  8 trial point group operations.


The dynamic configuration has the point symmetry C_1 .


Analysis of constrained symmetry for selective dynamics:
=====================================================================
 Subroutine PRICEL returns:
 Original cell was already a primitive cell.
 

 Routine SETGRP: Setting up the symmetry group for a 
 simple orthorhombic supercell.


 Subroutine GETGRP returns: Found  1 space group operations
 (whereof  1 operations were pure point group operations)
 out of a pool of  8 trial point group operations.


The constrained configuration has the point symmetry C_1 .


Analysis of structural, dynamic, and magnetic symmetry:
=====================================================================
 Subroutine PRICEL returns:
 Original cell was already a primitive cell.
 

 Routine SETGRP: Setting up the symmetry group for a 
 simple orthorhombic supercell.


 Subroutine GETGRP returns: Found  1 space group operations
 (whereof  1 operations were pure point group operations)
 out of a pool of  8 trial point group operations.


The overall configuration has the point symmetry C_1 .


 Subroutine INISYM returns: Found  1 space group operations
 (whereof  1 operations are pure point group operations),
 and found     1 'primitive' translations


----------------------------------------------------------------------------------------

                                     Primitive cell                                     

  volume of cell :     925.6876

  direct lattice vectors                    reciprocal lattice vectors
     5.536700000  0.000000000  0.000000000     0.180613001  0.000000000  0.000000000
     0.000000000  5.747300000  0.000000000     0.000000000  0.173994745  0.000000000
     0.000000000  0.000000000 29.090392640     0.000000000  0.000000000  0.034375610

  length of vectors
     5.536700000  5.747300000 29.090392640     0.180613001  0.173994745  0.034375610

  position of ions in fractional coordinates (direct lattice)
     0.000000000  0.500000000  0.003437561
     0.500000000  0.000000000  0.003437561
     0.500000000  0.000000000  0.135661627
     0.000000000  0.500000000  0.135661627
     0.999869288  0.499384381  0.269371256
     0.500130712  0.999384381  0.269371256
     0.489395868  0.003155030  0.400064527
     0.010604132  0.503155030  0.400064527
     0.507800000  0.549000000  0.069549594
     0.992200000  0.049000000  0.069549594
     0.492200000  0.451000000  0.201773660
     0.007800000  0.951000000  0.201773660
     0.509573887  0.544166459  0.335817371
     0.990426113  0.044166459  0.335817371
     0.774400000  0.806600000  0.013592369
     0.725600000  0.306600000  0.013592369
     0.425500000  0.987400000  0.069549594
     0.074500000  0.487400000  0.069549594
     0.725600000  0.306600000  0.125506819
     0.774400000  0.806600000  0.125506819
     0.225600000  0.193400000  0.145816435
     0.274400000  0.693400000  0.145816435
     0.574500000  0.012600000  0.201773660
     0.925500000  0.512600000  0.201773660
     0.288705330  0.696341168  0.256143619
     0.211294670  0.196341168  0.256143619
     0.792048047  0.807818652  0.277526194
     0.707951953  0.307818652  0.277526194
     0.429843379  0.003571190  0.333245042
     0.070156621  0.503571190  0.333245042
     0.719086704  0.301287230  0.387742702
     0.780913296  0.801287230  0.387742702
     0.213394579  0.192287266  0.408348745
     0.286605421  0.692287266  0.408348745
     0.000000000  0.500000000  0.470224844

  ion indices of the primitive-cell ions
   primitive index   ion index
                 1           1
                 2           2
                 3           3
                 4           4
                 5           5
                 6           6
                 7           7
                 8           8
                 9           9
                10          10
                11          11
                12          12
                13          13
                14          14
                15          15
                16          16
                17          17
                18          18
                19          19
                20          20
                21          21
                22          22
                23          23
                24          24
                25          25
                26          26
                27          27
                28          28
                29          29
                30          30
                31          31
                32          32
                33          33
                34          34
                35          35

----------------------------------------------------------------------------------------

 
 
 KPOINTS: KPOINTS created by Atomic Simulation Env

Automatic generation of k-mesh.
 Grid dimensions read from file:
 generate k-points for:    1    1    1

 Generating k-lattice:

  Cartesian coordinates                     Fractional coordinates (reciprocal lattice)
     0.180613001  0.000000000  0.000000000     1.000000000  0.000000000  0.000000000
     0.000000000  0.173994745  0.000000000     0.000000000  1.000000000  0.000000000
     0.000000000  0.000000000  0.034375610     0.000000000  0.000000000  1.000000000

  Length of vectors
     0.180613001  0.173994745  0.034375610

  Shift w.r.t. Gamma in fractional coordinates (k-lattice)
     0.000000000  0.000000000  0.000000000

 
 Subroutine IBZKPT returns following result:
 ===========================================
 
 Found      1 irreducible k-points:
 
 Following reciprocal coordinates:
            Coordinates               Weight
  0.000000  0.000000  0.000000      1.000000
 
 Following cartesian coordinates:
            Coordinates               Weight
  0.000000  0.000000  0.000000      1.000000
 


--------------------------------------------------------------------------------------------------------




 Dimension of arrays:
   k-points           NKPTS =      1   k-points in BZ     NKDIM =      1   number of bands    NBANDS=    180
   number of dos      NEDOS =    301   number of ions     NIONS =     35
   non local maximal  LDIM  =      8   non local SUM 2l+1 LMDIM =     32
   total plane-waves  NPLWV = 112896
   max r-space proj   IRMAX =   1808   max aug-charges    IRDMAX=   6572
   dimension x,y,z NGX =    28 NGY =   28 NGZ =  144
   dimension x,y,z NGXF=    56 NGYF=   56 NGZF=  288
   support grid    NGXF=    56 NGYF=   56 NGZF=  288
   ions per type =               8   6  21
   NGX,Y,Z   is equivalent  to a cutoff of   8.41,  8.10,  8.23 a.u.
   NGXF,Y,Z  is equivalent  to a cutoff of  16.81, 16.20, 16.46 a.u.

 SYSTEM =  unknown system                          
 POSCAR =  Cr La O                                 

 Startparameter for this run:
   NWRITE =      2    write-flag & timer
   PREC   = normal    normal or accurate (medium, high low for compatibility)
   ISTART =      0    job   : 0-new  1-cont  2-samecut
   ICHARG =      2    charge: 1-file 2-atom 10-const
   ISPIN  =      2    spin polarized calculation?
   LNONCOLLINEAR =      F non collinear calculations
   LSORBIT =      F    spin-orbit coupling
   INIWAV =      1    electr: 0-lowe 1-rand  2-diag
   LASPH  =      T    aspherical Exc in radial PAW
 Electronic Relaxation 1
   ENCUT  =  400.0 eV  29.40 Ry    5.42 a.u.   9.03  9.37 47.44*2*pi/ulx,y,z
   ENINI  =  400.0     initial cutoff
   ENAUG  =  605.4 eV  augmentation charge cutoff
   NELM   =     30;   NELMIN=  5; NELMDL=  0     # of ELM steps 
   EDIFF  = 0.1E-03   stopping-criterion for ELM
   LREAL  =      T    real-space projection
   NLSPLINE    = F    spline interpolate recip. space projectors
   LCOMPAT=      F    compatible to vasp.4.4
   GGA_COMPAT  = T    GGA compatible to vasp.4.4-vasp.4.6
   LMAXPAW     = -100 max onsite density
   LMAXMIX     =    6 max onsite mixed and CHGCAR
   VOSKOWN=      0    Vosko Wilk Nusair interpolation
   ROPT   =    0.00000   0.00000   0.00000
 Ionic relaxation
   EDIFFG = -.1E+00   stopping-criterion for IOM
   NSW    =      5    number of steps for IOM
   NBLOCK =      1;   KBLOCK =      5    inner block; outer block 
   IBRION =      2    ionic relax: 0-MD 1-quasi-New 2-CG
   NFREE  =      1    steps in history (QN), initial steepest desc. (CG)
   ISIF   =      2    stress and relaxation
   IWAVPR =     11    prediction:  0-non 1-charg 2-wave 3-comb
   ISYM   =      2    0-nonsym 1-usesym 2-fastsym
   LCORR  =      T    Harris-Foulkes like correction to forces

   POTIM  = 0.1500    time-step for ionic-motion
   TEIN   =    0.0    initial temperature
   TEBEG  =    0.0;   TEEND  =   0.0 temperature during run
   SMASS  =  -3.00    Nose mass-parameter (am)
   estimated Nose-frequenzy (Omega)   =  0.10E-29 period in steps = 0.42E+47 mass=  -0.701E-27a.u.
   SCALEE = 1.0000    scale energy and forces
   NPACO  =    256;   APACO  = 10.0  distance and # of slots for P.C.
   PSTRESS=    0.0 pullay stress

  Mass of Ions in am
   POMASS =  52.00138.90 16.00
  Ionic Valenz
   ZVAL   =  12.00 11.00  6.00
  Atomic Wigner-Seitz radii
   RWIGS  =  -1.00 -1.00 -1.00
  virtual crystal weights 
   VCA    =   1.00  1.00  1.00
   NELECT =     288.0000    total number of electrons
   NUPDOWN=      -1.0000    fix difference up-down

 DOS related values:
   EMIN   =  10.00;   EMAX   =-10.00  energy-range for DOS
   EFERMI =   0.00;   METHOD = LEGACY      
   ISMEAR =     0;   SIGMA  =   0.20  broadening in eV -4-tet -1-fermi 0-gaus

 Electronic relaxation 2 (details)
   IALGO  =     38    algorithm
   LDIAG  =      T    sub-space diagonalisation (order eigenvalues)
   LSUBROT=      F    optimize rotation matrix (better conditioning)
   TURBO    =      0    0=normal 1=particle mesh
   IRESTART =      0    0=no restart 2=restart with 2 vectors
   NREBOOT  =      0    no. of reboots
   NMIN     =      0    reboot dimension
   EREF     =   0.00    reference energy to select bands
   IMIX   =      4    mixing-type and parameters
     AMIX     =   0.40;   BMIX     =  1.00
     AMIX_MAG =   1.60;   BMIX_MAG =  1.00
     AMIN     =   0.10
     WC   =   100.;   INIMIX=   1;  MIXPRE=   1;  MAXMIX= -45

 Intra band minimization:
   WEIMIN = 0.0010     energy-eigenvalue tresh-hold
   EBREAK =  0.14E-06  absolut break condition
   DEPER  =   0.30     relativ break condition  

   TIME   =   0.40     timestep for ELM

  volume/ion in A,a.u.               =      26.45       178.48
  Fermi-wavevector in a.u.,A,eV,Ry     =   1.109305  2.096282 16.742743  1.230557
  Thomas-Fermi vector in A             =   2.245843
 
 Write flags
   LWAVE        =      F    write WAVECAR
   LDOWNSAMPLE  =      F    k-point downsampling of WAVECAR
   LCHARG       =      F    write CHGCAR
   LVTOT        =      F    write LOCPOT, total local potential
   LVHAR        =      F    write LOCPOT, Hartree potential only
   WRT_POTENTIAL= false  ! write potential to hdf5 file
   LELF         =      F    write electronic localiz. function (ELF)
   LORBIT       =     10    0 simple, 1 ext, 2 COOP (PROOUT), +10 PAW based schemes


 Dipole corrections
   LMONO      =      F    monopole corrections only (constant potential shift)
   LDIPOL     =      T    correct potential (dipole corrections)
   IDIPOL     =      3    1-x, 2-y, 3-z, 4-all directions 
   EPSILON    =  1.0000000 bulk dielectric constant
   LVACPOTAV  =      F  vacuum potentials using an averaging scheme for the charge density
   VACPOTFLAT =  0.1000000 required flatness to determine vacuum potential
 Exchange correlation treatment:
   GGA     = PE    functional components
   XC_C    = 1    coefficients multiplying the functional components
   LIBXC   =     F    Libxc                    
   VOSKOWN =     0    Vosko Wilk Nusair interpolation
   LHFCALC =     F    Hartree Fock is set to
   LHFONE  =     F    Hartree Fock one center treatment
   AEXX    =    0.0000 exact exchange contribution

 Parameters of functionals:
   PE:
     No parameter
 
 Van der Waals corrections
   IVDW    =     0    specifies the selected vdW correction

 Linear response parameters
   LEPSILON=     F    determine dielectric tensor
   LRPA    =     F    only Hartree local field effects (RPA)
   LNABLA  =     F    use nabla operator in PAW spheres
   LVEL    =     F    velocity operator in full k-point grid
   CSHIFT  =0.1000    complex shift for real part using Kramers Kronig
   OMEGAMAX=  -1.0    maximum frequency
   DEG_THRESHOLD= 0.2000000E-02 threshold for treating states as degnerate
   RTIME   =   -0.100 relaxation time in fs
  (WPLASMAI=    0.000 imaginary part of plasma frequency in eV, 0.658/RTIME)
   DFIELD  = 0.0000000 0.0000000 0.0000000 field for delta impulse in time
 
  Optional k-point grid parameters
   LKPOINTS_OPT  =     F    use optional k-point grid
   KPOINTS_OPT_MODE=     1    mode for optional k-point grid
 
 Orbital magnetization related:
   ORBITALMAG=     F  switch on orbital magnetization
   LCHIMAG   =     F  perturbation theory with respect to B field
   DQ        =  0.001000  dq finite difference perturbation B field
   LLRAUG    =     F  two centre corrections for induced B field
   LBONE     =     F  B-component reconstruction in AE one-centre
   LVGVCALC  =     T  calculate vGv susceptibility
   LVGVAPPL  =     F  apply vGv susceptibility instead of pGv for G=0

 Random number generation:
   RANDOM_GENERATOR = DEFAULT
   PCG_SEED         = not used


--------------------------------------------------------------------------------------------------------


 conjugate gradient relaxation of ions
   using selective dynamics as specified on POSCAR
   WARNING: If single coordinates had been selected the selection of coordinates
            is made according to the corresponding   d i r e c t   coordinates!
            Don't support selection of single cartesian coordinates -- sorry ...
  !
 charge density and potential will be updated during run
 spin polarized calculation
 Variant of blocked Davidson
 Davidson routine will perform the subspace rotation
 perform sub-space diagonalisation
    after iterative eigenvector-optimisation
 modified Broyden-mixing scheme, WC =      100.0
 initial mixing is a Kerker type mixing with AMIX =  0.4000 and BMIX =      1.0000
 Hartree-type preconditioning will be used
 using additional bands           36
 real space projection scheme for non local part
 use partial core corrections
 calculate Harris-corrections to forces 
   (improved forces if not selfconsistent)
 use gradient corrections 
 use of overlap-Matrix (Vanderbilt PP)
 Gauss-broadening in eV      SIGMA  =   0.20


--------------------------------------------------------------------------------------------------------


  energy-cutoff  :      400.00
  volume of cell :      925.69
      direct lattice vectors                 reciprocal lattice vectors
     5.536700000  0.000000000  0.000000000     0.180613001  0.000000000  0.000000000
     0.000000000  5.747300000  0.000000000     0.000000000  0.173994745  0.000000000
     0.000000000  0.000000000 29.090392640     0.000000000  0.000000000  0.034375610

  length of vectors
     5.536700000  5.747300000 29.090392640     0.180613001  0.173994745  0.034375610


 
 k-points in units of 2pi/SCALE and weight: KPOINTS created by Atomic Simulation Env
   0.00000000  0.00000000  0.00000000       1.000
 
 k-points in reciprocal lattice and weights: KPOINTS created by Atomic Simulation Env
   0.00000000  0.00000000  0.00000000       1.000
 
 position of ions in fractional coordinates (direct lattice) 
   0.00000000  0.50000000  0.00343756
   0.50000000  0.00000000  0.00343756
   0.50000000  0.00000000  0.13566163
   0.00000000  0.50000000  0.13566163
   0.99986929  0.49938438  0.26937126
   0.50013071  0.99938438  0.26937126
   0.48939587  0.00315503  0.40006453
   0.01060413  0.50315503  0.40006453
   0.50780000  0.54900000  0.06954959
   0.99220000  0.04900000  0.06954959
   0.49220000  0.45100000  0.20177366
   0.00780000  0.95100000  0.20177366
   0.50957389  0.54416646  0.33581737
   0.99042611  0.04416646  0.33581737
   0.77440000  0.80660000  0.01359237
   0.72560000  0.30660000  0.01359237
   0.42550000  0.98740000  0.06954959
   0.07450000  0.48740000  0.06954959
   0.72560000  0.30660000  0.12550682
   0.77440000  0.80660000  0.12550682
   0.22560000  0.19340000  0.14581644
   0.27440000  0.69340000  0.14581644
   0.57450000  0.01260000  0.20177366
   0.92550000  0.51260000  0.20177366
   0.28870533  0.69634117  0.25614362
   0.21129467  0.19634117  0.25614362
   0.79204805  0.80781865  0.27752619
   0.70795195  0.30781865  0.27752619
   0.42984338  0.00357119  0.33324504
   0.07015662  0.50357119  0.33324504
   0.71908670  0.30128723  0.38774270
   0.78091330  0.80128723  0.38774270
   0.21339458  0.19228727  0.40834875
   0.28660542  0.69228727  0.40834875
   0.00000000  0.50000000  0.47022484
 
 position of ions in cartesian coordinates  (Angst):
   0.00000000  2.87365000  0.10000000
   2.76835000  0.00000000  0.10000000
   2.76835000  0.00000000  3.94645000
   0.00000000  2.87365000  3.94645000
   5.53597629  2.87011185  7.83611561
   2.76907371  5.74376185  7.83611561
   2.70963810  0.01813291 11.63803417
   0.05871190  2.89178291 11.63803417
   2.81153626  3.15526770  2.02322500
   5.49351374  0.28161770  2.02322500
   2.72516374  2.59203230  5.86967500
   0.04318626  5.46568230  5.86967500
   2.82135774  3.12748789  9.76905917
   5.48369226  0.25383789  9.76905917
   4.28762048  4.63577218  0.39540736
   4.01742952  1.76212218  0.39540736
   2.35586585  5.67488402  2.02322500
   0.41248415  2.80123402  2.02322500
   4.01742952  1.76212218  3.65104264
   4.28762048  4.63577218  3.65104264
   1.24907952  1.11152782  4.24185736
   1.51927048  3.98517782  4.24185736
   3.18083415  0.07241598  5.86967500
   5.12421585  2.94606598  5.86967500
   1.59847480  4.00208159  7.45131844
   1.16987520  1.12843159  7.45131844
   4.38533242  4.64277614  8.07334595
   3.91971758  1.76912614  8.07334595
   2.37991384  0.02052470  9.69422912
   0.38843616  2.89417470  9.69422912
   3.98136735  1.73158810 11.27958744
   4.32368265  4.60523810 11.27958744
   1.18150177  1.10513260 11.87902533
   1.58684823  3.97878260 11.87902533
   0.00000000  2.87365000 13.67902533
 


--------------------------------------------------------------------------------------------------------


 k-point     1 :   0.0000 0.0000 0.0000  plane waves:   16779

 maximum and minimum number of plane-waves per node :      4200     4193

 maximum number of plane-waves:     16779
 maximum index in each direction: 
   IXMAX=    9   IYMAX=    9   IZMAX=   47
   IXMIN=   -9   IYMIN=   -9   IZMIN=  -47


 real space projection operators:
  total allocation   :       3990.06 KBytes
  max/ min on nodes  :       1002.88        994.84


 parallel 3D FFT for wavefunctions:
    minimum data exchange during FFTs selected (reduces bandwidth)
 parallel 3D FFT for charge:
    minimum data exchange during FFTs selected (reduces bandwidth)


 total amount of memory used by VASP MPI-rank0    42649. kBytes
=======================================================================

   base      :      30000. kBytes
   nonlr-proj:       2273. kBytes
   fftplans  :       1875. kBytes
   grid      :       5118. kBytes
   one-center:        884. kBytes
   wavefun   :       2499. kBytes
 
     INWAV:  cpu time      0.0001: real time      0.0002
 Broyden mixing: mesh for mixing (old mesh)
   NGX = 19   NGY = 19   NGZ = 95
  (NGX  = 56   NGY  = 56   NGZ  =288)
  gives a total of  34295 points

 initial charge density was supplied:
 charge density of overlapping atoms calculated
 number of electron     288.0000000 magnetization      10.0000000
 keeping initial charge density in first step


--------------------------------------------------------------------------------------------------------


 Maximum index for non-local projection operator          447
 Maximum index for augmentation-charges          402 (set IRDMAX)


--------------------------------------------------------------------------------------------------------


 First call to EWALD:  gamma=   0.182
 Maximum number of real-space cells 4x 4x 1
 Maximum number of reciprocal cells 2x 2x 7

    FEWALD:  cpu time      0.0019: real time      0.0019


--------------------------------------- Ionic step        1  -------------------------------------------




--------------------------------------- Iteration      1(   1)  ---------------------------------------


    POTLOK:  cpu time      0.0350: real time      0.0358
    SETDIJ:  cpu time      0.8444: real time      0.8467
     EDDAV:  cpu time      0.3797: real time      0.3807
       DOS:  cpu time      0.0010: real time      0.0010
    --------------------------------------------
      LOOP:  cpu time      1.2601: real time      1.2643

 eigenvalue-minimisations  :   760
 total energy-change (2. order) : 0.4449703E+04  (-0.1097713E+05)
 number of electron     288.0000000 magnetization      10.0000000
 augmentation part      288.0000000 magnetization      10.0000000

 DIPCOR: dipole corrections for dipol
 direction  3 min pos   213,
 dipolmoment           0.000000      0.000000      0.000172 electrons x Angstroem
 Tr[quadrupol]     -1837.157315

 energy correction for charged system         0.000000 eV
 dipol+quadrupol energy correction           -0.000000 eV
 added-field ion interaction          0.005675 eV  (added to PSCEN)


 Free energy of the ion-electron system (eV)
  ---------------------------------------------------
  alpha Z        PSCENC =       594.73490613
  Ewald energy   TEWEN  =    141538.06913758
  -Hartree energ DENC   =   -166184.00290882
  -exchange      EXHF   =         0.00000000
  -V(xc)+E(xc)   XCENC  =      1205.58067903
  PAW double counting   =     21599.25382036   -22020.18868056
  entropy T*S    EENTRO =        -0.22337883
  eigenvalues    EBANDS =       259.99910394
  atomic energy  EATOM  =     27456.48054543
  Solvation  Ediel_sol  =         0.00000000
  ---------------------------------------------------
  free energy    TOTEN  =      4449.70322426 eV

  energy without entropy =     4449.92660309  energy(sigma->0) =     4449.81491368


--------------------------------------------------------------------------------------------------------




--------------------------------------- Iteration      1(   2)  ---------------------------------------


     EDDAV:  cpu time      0.3626: real time      0.3696
       DOS:  cpu time      0.0004: real time      0.0004
    --------------------------------------------
      LOOP:  cpu time      0.3629: real time      0.3700

 eigenvalue-minimisations  :   780
 total energy-change (2. order) :-0.3475951E+04  (-0.3180399E+04)
 number of electron     288.0000000 magnetization      10.0000000
 augmentation part      288.0000000 magnetization      10.0000000

 DIPCOR: dipole corrections for dipol
 direction  3 min pos   213,
 dipolmoment           0.000000      0.000000      0.000172 electrons x Angstroem
 Tr[quadrupol]     -1837.157315

 energy correction for charged system         0.000000 eV
 dipol+quadrupol energy correction           -0.000000 eV
 added-field ion interaction          0.005675 eV  (added to PSCEN)


 Free energy of the ion-electron system (eV)
  ---------------------------------------------------
  alpha Z        PSCENC =       594.73490613
  Ewald energy   TEWEN  =    141538.06913758
  -Hartree energ DENC   =   -166184.00290882
  -exchange      EXHF   =         0.00000000
  -V(xc)+E(xc)   XCENC  =      1205.58067903
  PAW double counting   =     21599.25382036   -22020.18868056
  entropy T*S    EENTRO =        -0.61749218
  eigenvalues    EBANDS =     -3215.55791608
  atomic energy  EATOM  =     27456.48054543
  Solvation  Ediel_sol  =         0.00000000
  ---------------------------------------------------
  free energy    TOTEN  =       973.75209089 eV

  energy without entropy =      974.36958307  energy(sigma->0) =      974.06083698


--------------------------------------------------------------------------------------------------------




--------------------------------------- Iteration      1(   3)  ---------------------------------------


     EDDAV:  cpu time      0.4346: real time      0.4432
       DOS:  cpu time      0.0003: real time      0.0003
    --------------------------------------------
      LOOP:  cpu time      0.4349: real time      0.4434

 eigenvalue-minimisations  :   960
 total energy-change (2. order) :-0.1115277E+04  (-0.1078759E+04)
 number of electron     288.0000000 magnetization      10.0000000
 augmentation part      288.0000000 magnetization      10.0000000

 DIPCOR: dipole corrections for dipol
 direction  3 min pos   213,
 dipolmoment           0.000000      0.000000      0.000172 electrons x Angstroem
 Tr[quadrupol]     -1837.157315

 energy correction for charged system         0.000000 eV
 dipol+quadrupol energy correction           -0.000000 eV
 added-field ion interaction          0.005675 eV  (added to PSCEN)


 Free energy of the ion-electron system (eV)
  ---------------------------------------------------
  alpha Z        PSCENC =       594.73490613
  Ewald energy   TEWEN  =    141538.06913758
  -Hartree energ DENC   =   -166184.00290882
  -exchange      EXHF   =         0.00000000
  -V(xc)+E(xc)   XCENC  =      1205.58067903
  PAW double counting   =     21599.25382036   -22020.18868056
  entropy T*S    EENTRO =        -1.03767975
  eigenvalues    EBANDS =     -4330.41486951
  atomic energy  EATOM  =     27456.48054543
  Solvation  Ediel_sol  =         0.00000000
  ---------------------------------------------------
  free energy    TOTEN  =      -141.52505011 eV

  energy without entropy =     -140.48737036  energy(sigma->0) =     -141.00621024


--------------------------------------------------------------------------------------------------------




--------------------------------------- Iteration      1(   4)  ---------------------------------------


     EDDAV:  cpu time      0.5076: real time      0.5168
       DOS:  cpu time      0.0003: real time      0.0003
    --------------------------------------------
      LOOP:  cpu time      0.5079: real time      0.5171

 eigenvalue-minimisations  :  1140
 total energy-change (2. order) :-0.2058437E+03  (-0.1992418E+03)
 number of electron     288.0000000 magnetization      10.0000000
 augmentation part      288.0000000 magnetization      10.0000000

 DIPCOR: dipole corrections for dipol
 direction  3 min pos   213,
 dipolmoment           0.000000      0.000000      0.000172 electrons x Angstroem
 Tr[quadrupol]     -1837.157315

 energy correction for charged system         0.000000 eV
 dipol+quadrupol energy correction           -0.000000 eV
 added-field ion interaction          0.005675 eV  (added to PSCEN)


 Free energy of the ion-electron system (eV)
  ---------------------------------------------------
  alpha Z        PSCENC =       594.73490613
  Ewald energy   TEWEN  =    141538.06913758
  -Hartree energ DENC   =   -166184.00290882
  -exchange      EXHF   =         0.00000000
  -V(xc)+E(xc)   XCENC  =      1205.58067903
  PAW double counting   =     21599.25382036   -22020.18868056
  entropy T*S    EENTRO =        -1.51808295
  eigenvalues    EBANDS =     -4535.77812887
  atomic energy  EATOM  =     27456.48054543
  Solvation  Ediel_sol  =         0.00000000
  ---------------------------------------------------
  free energy    TOTEN  =      -347.36871267 eV

  energy without entropy =     -345.85062972  energy(sigma->0) =     -346.60967120


--------------------------------------------------------------------------------------------------------




--------------------------------------- Iteration      1(   5)  ---------------------------------------


     EDDAV:  cpu time      0.5849: real time      0.5940
       DOS:  cpu time      0.0004: real time      0.0004
    CHARGE:  cpu time      0.0186: real time      0.0186
    MIXING:  cpu time      0.0028: real time      0.0029
    --------------------------------------------
      LOOP:  cpu time      0.6067: real time      0.6158

 eigenvalue-minimisations  :  1340
 total energy-change (2. order) :-0.1617897E+02  (-0.1516766E+02)
 number of electron     288.0000205 magnetization       9.4804810
 augmentation part       48.9872145 magnetization       8.2083895

 DIPCOR: dipole corrections for dipol
 direction  3 min pos   213,
 dipolmoment           0.000000      0.000000      0.000172 electrons x Angstroem
 Tr[quadrupol]     -1837.157315

 energy correction for charged system         0.000000 eV
 dipol+quadrupol energy correction           -0.000000 eV
 added-field ion interaction          0.005675 eV  (added to PSCEN)


 Broyden mixing:
  rms(total) = 0.86536E+01    rms(broyden)= 0.86526E+01
  rms(prec ) = 0.92051E+01
  weight for this iteration     100.00

 Free energy of the ion-electron system (eV)
  ---------------------------------------------------
  alpha Z        PSCENC =       594.73490613
  Ewald energy   TEWEN  =    141538.06913758
  -Hartree energ DENC   =   -166184.00290882
  -exchange      EXHF   =         0.00000000
  -V(xc)+E(xc)   XCENC  =      1205.58067903
  PAW double counting   =     21599.25382036   -22020.18868056
  entropy T*S    EENTRO =        -1.31511191
  eigenvalues    EBANDS =     -4552.16007335
  atomic energy  EATOM  =     27456.48054543
  Solvation  Ediel_sol  =         0.00000000
  ---------------------------------------------------
  free energy    TOTEN  =      -363.54768611 eV

  energy without entropy =     -362.23257420  energy(sigma->0) =     -362.89013016


--------------------------------------------------------------------------------------------------------




--------------------------------------- Iteration      1(   6)  ---------------------------------------


    POTLOK:  cpu time      0.0307: real time      0.0393
    SETDIJ:  cpu time      0.9084: real time      0.9109
     EDDAV:  cpu time      0.5163: real time      0.5181
       DOS:  cpu time      0.0005: real time      0.0005
    CHARGE:  cpu time      0.0163: real time      0.0163
    MIXING:  cpu time      0.0017: real time      0.0017
    --------------------------------------------
      LOOP:  cpu time      1.4738: real time      1.4868

 eigenvalue-minimisations  :  1160
 total energy-change (2. order) :-0.2617930E+03  (-0.6131962E+03)
 number of electron     287.9999720 magnetization       9.4286094
 augmentation part       78.6050163 magnetization       6.8298510

 DIPCOR: dipole corrections for dipol
 direction  3 min pos   210,
 dipolmoment           0.000000      0.000000      2.178668 electrons x Angstroem
 Tr[quadrupol]     -1861.118446

 energy correction for charged system         0.000000 eV
 dipol+quadrupol energy correction           -0.463931 eV
 added-field ion interaction         34.513449 eV  (added to PSCEN)


 Broyden mixing:
  rms(total) = 0.31845E+02    rms(broyden)= 0.31844E+02
  rms(prec ) = 0.33453E+02
  weight for this iteration     100.00

 eigenvalues of (default mixing * dielectric matrix)
  average eigenvalue GAMMA=   0.0940
  0.0940

 Free energy of the ion-electron system (eV)
  ---------------------------------------------------
  alpha Z        PSCENC =       628.77874865
  Ewald energy   TEWEN  =    141538.06913758
  -Hartree energ DENC   =   -166444.08447887
  -exchange      EXHF   =         0.00000000
  -V(xc)+E(xc)   XCENC  =      1209.14723795
  PAW double counting   =     22844.95739758   -23247.71967659
  entropy T*S    EENTRO =        -0.39166466
  eigenvalues    EBANDS =     -4610.57791584
  atomic energy  EATOM  =     27456.48054543
  Solvation  Ediel_sol  =         0.00000000
  ---------------------------------------------------
  free energy    TOTEN  =      -625.34066876 eV

  energy without entropy =     -624.94900409  energy(sigma->0) =     -625.14483643


--------------------------------------------------------------------------------------------------------




--------------------------------------- Iteration      1(   7)  ---------------------------------------


    POTLOK:  cpu time      0.0308: real time      0.0388
    SETDIJ:  cpu time      0.9050: real time      0.9074
     EDDAV:  cpu time      0.5742: real time      0.5754
       DOS:  cpu time      0.0004: real time      0.0004
    CHARGE:  cpu time      0.0156: real time      0.0157
    MIXING:  cpu time      0.0013: real time      0.0013
    --------------------------------------------
      LOOP:  cpu time      1.5273: real time      1.5389

 eigenvalue-minimisations  :  1320
 total energy-change (2. order) : 0.1826085E+03  (-0.1850808E+03)
 number of electron     287.9999781 magnetization       9.3639089
 augmentation part       72.5575775 magnetization       6.5800091

 DIPCOR: dipole corrections for dipol
 direction  3 min pos   207,
 dipolmoment           0.000000      0.000000     -0.584011 electrons x Angstroem
 Tr[quadrupol]     -1851.573012

 energy correction for charged system         0.000000 eV
 dipol+quadrupol energy correction           -0.033336 eV
 added-field ion interaction          0.711445 eV  (added to PSCEN)


 Broyden mixing:
  rms(total) = 0.19416E+02    rms(broyden)= 0.19414E+02
  rms(prec ) = 0.20491E+02
  weight for this iteration     100.00

 eigenvalues of (default mixing * dielectric matrix)
  average eigenvalue GAMMA=   0.1984
  0.1984  0.1984

 Free energy of the ion-electron system (eV)
  ---------------------------------------------------
  alpha Z        PSCENC =       595.40733942
  Ewald energy   TEWEN  =    141538.06913758
  -Hartree energ DENC   =   -166319.55754893
  -exchange      EXHF   =         0.00000000
  -V(xc)+E(xc)   XCENC  =      1210.97104354
  PAW double counting   =     24348.48499749   -24770.56355599
  entropy T*S    EENTRO =        -0.39630533
  eigenvalues    EBANDS =     -4501.62780240
  atomic energy  EATOM  =     27456.48054543
  Solvation  Ediel_sol  =         0.00000000
  ---------------------------------------------------
  free energy    TOTEN  =      -442.73214920 eV

  energy without entropy =     -442.33584387  energy(sigma->0) =     -442.53399653


--------------------------------------------------------------------------------------------------------




--------------------------------------- Iteration      1(   8)  ---------------------------------------


    POTLOK:  cpu time      0.0296: real time      0.0381
    SETDIJ:  cpu time      0.9058: real time      0.9082
     EDDAV:  cpu time      0.5895: real time      0.5911
       DOS:  cpu time      0.0006: real time      0.0006
    CHARGE:  cpu time      0.0167: real time      0.0167
    MIXING:  cpu time      0.0013: real time      0.0013
    --------------------------------------------
      LOOP:  cpu time      1.5436: real time      1.5560

 eigenvalue-minimisations  :  1300
 total energy-change (2. order) :-0.4642129E+03  (-0.2792238E+03)
 number of electron     287.9999937 magnetization       9.3645547
 augmentation part       59.6006668 magnetization       8.1211559

 DIPCOR: dipole corrections for dipol
 direction  3 min pos   205,
 dipolmoment           0.000000      0.000000      4.165729 electrons x Angstroem
 Tr[quadrupol]     -1850.246038

 energy correction for charged system         0.000000 eV
 dipol+quadrupol energy correction           -1.696108 eV
 added-field ion interaction        -52.452200 eV  (added to PSCEN)


 Broyden mixing:
  rms(total) = 0.94259E+02    rms(broyden)= 0.94259E+02
  rms(prec ) = 0.96287E+02
  weight for this iteration     100.00

 eigenvalues of (default mixing * dielectric matrix)
  average eigenvalue GAMMA=   0.1375
  0.2014  0.2014  0.0098

 Free energy of the ion-electron system (eV)
  ---------------------------------------------------
  alpha Z        PSCENC =       540.58092297
  Ewald energy   TEWEN  =    141538.06913758
  -Hartree energ DENC   =   -166443.32995245
  -exchange      EXHF   =         0.00000000
  -V(xc)+E(xc)   XCENC  =      1213.58981845
  PAW double counting   =     26753.47837971   -27187.69426548
  entropy T*S    EENTRO =        -0.29913221
  eigenvalues    EBANDS =     -4777.82051293
  atomic energy  EATOM  =     27456.48054543
  Solvation  Ediel_sol  =         0.00000000
  ---------------------------------------------------
  free energy    TOTEN  =      -906.94505892 eV

  energy without entropy =     -906.64592671  energy(sigma->0) =     -906.79549282


--------------------------------------------------------------------------------------------------------




--------------------------------------- Iteration      1(   9)  ---------------------------------------


    POTLOK:  cpu time      0.0307: real time      0.0396
    SETDIJ:  cpu time      0.9061: real time      0.9087
     EDDAV:  cpu time      0.6274: real time      0.6293
       DOS:  cpu time      0.0004: real time      0.0004
    CHARGE:  cpu time      0.0212: real time      0.0212
    MIXING:  cpu time      0.0018: real time      0.0018
    --------------------------------------------
      LOOP:  cpu time      1.5876: real time      1.6010

 eigenvalue-minimisations  :  1340
 total energy-change (2. order) :-0.2176741E+03  (-0.1192265E+03)
 number of electron     287.9999932 magnetization       9.3471218
 augmentation part       56.6074540 magnetization       7.5857403

 DIPCOR: dipole corrections for dipol
 direction  3 min pos   204,
 dipolmoment           0.000000      0.000000      4.463157 electrons x Angstroem
 Tr[quadrupol]     -1849.039612

 energy correction for charged system         0.000000 eV
 dipol+quadrupol energy correction           -1.946955 eV
 added-field ion interaction        -81.577321 eV  (added to PSCEN)


 Broyden mixing:
  rms(total) = 0.14467E+03    rms(broyden)= 0.14467E+03
  rms(prec ) = 0.14658E+03
  weight for this iteration     100.00

 eigenvalues of (default mixing * dielectric matrix)
  average eigenvalue GAMMA=   0.1096
  0.2066  0.2066  0.0127  0.0127

 Free energy of the ion-electron system (eV)
  ---------------------------------------------------
  alpha Z        PSCENC =       511.20495467
  Ewald energy   TEWEN  =    141538.06913758
  -Hartree energ DENC   =   -166450.18752694
  -exchange      EXHF   =         0.00000000
  -V(xc)+E(xc)   XCENC  =      1213.95396144
  PAW double counting   =     25950.69018529   -26385.42203706
  entropy T*S    EENTRO =        -0.33177116
  eigenvalues    EBANDS =     -4959.07656267
  atomic energy  EATOM  =     27456.48054543
  Solvation  Ediel_sol  =         0.00000000
  ---------------------------------------------------
  free energy    TOTEN  =     -1124.61911342 eV

  energy without entropy =    -1124.28734226  energy(sigma->0) =    -1124.45322784


--------------------------------------------------------------------------------------------------------




--------------------------------------- Iteration      1(  10)  ---------------------------------------


    POTLOK:  cpu time      0.0387: real time      0.0470
    SETDIJ:  cpu time      0.9063: real time      0.9087
     EDDAV:  cpu time      0.5572: real time      0.5584
       DOS:  cpu time      0.0003: real time      0.0003
    CHARGE:  cpu time      0.0156: real time      0.0157
    MIXING:  cpu time      0.0013: real time      0.0013
    --------------------------------------------
      LOOP:  cpu time      1.5193: real time      1.5313

 eigenvalue-minimisations  :  1280
 total energy-change (2. order) : 0.5093661E+02  (-0.2062807E+02)
 number of electron     287.9999911 magnetization       9.3729896
 augmentation part       53.2322391 magnetization       5.7231043

 DIPCOR: dipole corrections for dipol
 direction  3 min pos   204,
 dipolmoment           0.000000      0.000000      4.248456 electrons x Angstroem
 Tr[quadrupol]     -1851.913641

 energy correction for charged system         0.000000 eV
 dipol+quadrupol energy correction           -1.764143 eV
 added-field ion interaction        -77.653035 eV  (added to PSCEN)


 Broyden mixing:
  rms(total) = 0.14923E+03    rms(broyden)= 0.14923E+03
  rms(prec ) = 0.15122E+03
  weight for this iteration     100.00

 eigenvalues of (default mixing * dielectric matrix)
  average eigenvalue GAMMA=   0.1089
  0.1979  0.1979  0.0681  0.0681  0.0125

 Free energy of the ion-electron system (eV)
  ---------------------------------------------------
  alpha Z        PSCENC =       515.31205264
  Ewald energy   TEWEN  =    141538.06913758
  -Hartree energ DENC   =   -166539.29902840
  -exchange      EXHF   =         0.00000000
  -V(xc)+E(xc)   XCENC  =      1213.90198338
  PAW double counting   =     26100.55125291   -26537.03335422
  entropy T*S    EENTRO =        -0.26143127
  eigenvalues    EBANDS =     -4821.40365734
  atomic energy  EATOM  =     27456.48054543
  Solvation  Ediel_sol  =         0.00000000
  ---------------------------------------------------
  free energy    TOTEN  =     -1073.68249929 eV

  energy without entropy =    -1073.42106802  energy(sigma->0) =    -1073.55178366


--------------------------------------------------------------------------------------------------------




--------------------------------------- Iteration      1(  11)  ---------------------------------------


    POTLOK:  cpu time      0.0295: real time      0.0375
    SETDIJ:  cpu time      0.9052: real time      0.9076
     EDDAV:  cpu time      0.4618: real time      0.4628
       DOS:  cpu time      0.0003: real time      0.0003
    CHARGE:  cpu time      0.0162: real time      0.0165
    MIXING:  cpu time      0.0013: real time      0.0013
    --------------------------------------------
      LOOP:  cpu time      1.4143: real time      1.4260

 eigenvalue-minimisations  :  1040
 total energy-change (2. order) : 0.4415015E+03  (-0.2818352E+02)
 number of electron     288.0000029 magnetization       9.3597266
 augmentation part       56.3322734 magnetization       5.9607240

 DIPCOR: dipole corrections for dipol
 direction  3 min pos   203,
 dipolmoment           0.000000      0.000000      2.216870 electrons x Angstroem
 Tr[quadrupol]     -1839.801290

 energy correction for charged system         0.000000 eV
 dipol+quadrupol energy correction           -0.480344 eV
 added-field ion interaction        -53.126237 eV  (added to PSCEN)


 Broyden mixing:
  rms(total) = 0.14936E+03    rms(broyden)= 0.14936E+03
  rms(prec ) = 0.15043E+03
  weight for this iteration     100.00

 eigenvalues of (default mixing * dielectric matrix)
  average eigenvalue GAMMA=   0.1335
  0.1401  0.2138  0.2138  0.1098  0.1098  0.0134

 Free energy of the ion-electron system (eV)
  ---------------------------------------------------
  alpha Z        PSCENC =       541.12265019
  Ewald energy   TEWEN  =    141538.06913758
  -Hartree energ DENC   =   -166253.13008772
  -exchange      EXHF   =         0.00000000
  -V(xc)+E(xc)   XCENC  =      1213.65292385
  PAW double counting   =     27072.51792442   -27508.31202074
  entropy T*S    EENTRO =        -0.43181296
  eigenvalues    EBANDS =     -4692.15022461
  atomic energy  EATOM  =     27456.48054543
  Solvation  Ediel_sol  =         0.00000000
  ---------------------------------------------------
  free energy    TOTEN  =      -632.18096455 eV

  energy without entropy =     -631.74915160  energy(sigma->0) =     -631.96505808


--------------------------------------------------------------------------------------------------------




--------------------------------------- Iteration      1(  12)  ---------------------------------------


    POTLOK:  cpu time      0.0298: real time      0.0381
    SETDIJ:  cpu time      0.9052: real time      0.9074
     EDDAV:  cpu time      0.5576: real time      0.5592
       DOS:  cpu time      0.0003: real time      0.0003
    CHARGE:  cpu time      0.0150: real time      0.0150
    MIXING:  cpu time      0.0014: real time      0.0014
    --------------------------------------------
      LOOP:  cpu time      1.5094: real time      1.5215

 eigenvalue-minimisations  :  1280
 total energy-change (2. order) : 0.2732023E+03  (-0.6622571E+02)
 number of electron     288.0000059 magnetization       9.3272871
 augmentation part       64.3312799 magnetization       7.9936244

 DIPCOR: dipole corrections for dipol
 direction  3 min pos   202,
 dipolmoment           0.000000      0.000000     -0.518100 electrons x Angstroem
 Tr[quadrupol]     -1818.430925

 energy correction for charged system         0.000000 eV
 dipol+quadrupol energy correction           -0.026236 eV
 added-field ion interaction         15.362233 eV  (added to PSCEN)


 Broyden mixing:
  rms(total) = 0.55844E+02    rms(broyden)= 0.55844E+02
  rms(prec ) = 0.56791E+02
  weight for this iteration     100.00

 eigenvalues of (default mixing * dielectric matrix)
  average eigenvalue GAMMA=   0.1292
  0.1928  0.2327  0.2327  0.1089  0.1089  0.0134  0.0151

 Free energy of the ion-electron system (eV)
  ---------------------------------------------------
  alpha Z        PSCENC =       610.06522790
  Ewald energy   TEWEN  =    141538.06913758
  -Hartree energ DENC   =   -165620.31772105
  -exchange      EXHF   =         0.00000000
  -V(xc)+E(xc)   XCENC  =      1210.76075760
  PAW double counting   =     26087.65955361   -26522.21208545
  entropy T*S    EENTRO =        -0.23282242
  eigenvalues    EBANDS =     -5119.25130177
  atomic energy  EATOM  =     27456.48054543
  Solvation  Ediel_sol  =         0.00000000
  ---------------------------------------------------
  free energy    TOTEN  =      -358.97870856 eV

  energy without entropy =     -358.74588614  energy(sigma->0) =     -358.86229735


--------------------------------------------------------------------------------------------------------




--------------------------------------- Iteration      1(  13)  ---------------------------------------


    POTLOK:  cpu time      0.0295: real time      0.0378
    SETDIJ:  cpu time      0.9073: real time      0.9097
     EDDAV:  cpu time      0.5786: real time      0.5805
       DOS:  cpu time      0.0003: real time      0.0004
    CHARGE:  cpu time      0.0166: real time      0.0167
    MIXING:  cpu time      0.0017: real time      0.0017
    --------------------------------------------
      LOOP:  cpu time      1.5340: real time      1.5468

 eigenvalue-minimisations  :  1300
 total energy-change (2. order) :-0.1716047E+02  (-0.2324189E+02)
 number of electron     288.0000076 magnetization       9.3048527
 augmentation part       61.9014266 magnetization       6.9721215

 DIPCOR: dipole corrections for dipol
 direction  3 min pos   202,
 dipolmoment           0.000000      0.000000     -0.667557 electrons x Angstroem
 Tr[quadrupol]     -1818.106522

 energy correction for charged system         0.000000 eV
 dipol+quadrupol energy correction           -0.043556 eV
 added-field ion interaction         19.793813 eV  (added to PSCEN)


 Broyden mixing:
  rms(total) = 0.87471E+02    rms(broyden)= 0.87471E+02
  rms(prec ) = 0.87794E+02
  weight for this iteration     100.00

 eigenvalues of (default mixing * dielectric matrix)
  average eigenvalue GAMMA=   0.1154
  0.2324  0.2324  0.1696  0.1056  0.1056  0.0411  0.0134  0.0230

 Free energy of the ion-electron system (eV)
  ---------------------------------------------------
  alpha Z        PSCENC =       614.47948768
  Ewald energy   TEWEN  =    141538.06913758
  -Hartree energ DENC   =   -165590.70070387
  -exchange      EXHF   =         0.00000000
  -V(xc)+E(xc)   XCENC  =      1210.31615951
  PAW double counting   =     26292.22870088   -26727.50030211
  entropy T*S    EENTRO =        -0.72765166
  eigenvalues    EBANDS =     -5168.78454967
  atomic energy  EATOM  =     27456.48054543
  Solvation  Ediel_sol  =         0.00000000
  ---------------------------------------------------
  free energy    TOTEN  =      -376.13917621 eV

  energy without entropy =     -375.41152456  energy(sigma->0) =     -375.77535039


--------------------------------------------------------------------------------------------------------




--------------------------------------- Iteration      1(  14)  ---------------------------------------


    POTLOK:  cpu time      0.0303: real time      0.0395
    SETDIJ:  cpu time      0.9050: real time      0.9073
     EDDAV:  cpu time      0.5342: real time      0.5353
       DOS:  cpu time      0.0003: real time      0.0003
    CHARGE:  cpu time      0.0156: real time      0.0156
    MIXING:  cpu time      0.0016: real time      0.0016
    --------------------------------------------
      LOOP:  cpu time      1.4869: real time      1.4996

 eigenvalue-minimisations  :  1220
 total energy-change (2. order) : 0.1519137E+02  (-0.2533042E+02)
 number of electron     287.9999960 magnetization       9.1229407
 augmentation part       60.4749755 magnetization       8.2883251

 DIPCOR: dipole corrections for dipol
 direction  3 min pos   199,
 dipolmoment           0.000000      0.000000     -1.167144 electrons x Angstroem
 Tr[quadrupol]     -1822.273393

 energy correction for charged system         0.000000 eV
 dipol+quadrupol energy correction           -0.133144 eV
 added-field ion interaction         54.518256 eV  (added to PSCEN)


 Broyden mixing:
  rms(total) = 0.11686E+02    rms(broyden)= 0.11685E+02
  rms(prec ) = 0.12526E+02
  weight for this iteration     100.00

 eigenvalues of (default mixing * dielectric matrix)
  average eigenvalue GAMMA=   0.1382
  0.2820  0.2820  0.1672  0.2002  0.0904  0.0904  0.0871  0.0134  0.0315

 Free energy of the ion-electron system (eV)
  ---------------------------------------------------
  alpha Z        PSCENC =       649.11434367
  Ewald energy   TEWEN  =    141538.06913758
  -Hartree energ DENC   =   -165707.81585374
  -exchange      EXHF   =         0.00000000
  -V(xc)+E(xc)   XCENC  =      1211.21724461
  PAW double counting   =     25423.14685088   -25859.94405435
  entropy T*S    EENTRO =        -0.36007149
  eigenvalues    EBANDS =     -5070.85595372
  atomic energy  EATOM  =     27456.48054543
  Solvation  Ediel_sol  =         0.00000000
  ---------------------------------------------------
  free energy    TOTEN  =      -360.94781114 eV

  energy without entropy =     -360.58773964  energy(sigma->0) =     -360.76777539


--------------------------------------------------------------------------------------------------------




--------------------------------------- Iteration      1(  15)  ---------------------------------------


    POTLOK:  cpu time      0.0297: real time      0.0382
    SETDIJ:  cpu time      0.9056: real time      0.9079
     EDDAV:  cpu time      0.4296: real time      0.4305
       DOS:  cpu time      0.0003: real time      0.0003
    CHARGE:  cpu time      0.0155: real time      0.0156
    MIXING:  cpu time      0.0016: real time      0.0016
    --------------------------------------------
      LOOP:  cpu time      1.3824: real time      1.3941

 eigenvalue-minimisations  :   960
 total energy-change (2. order) : 0.2045185E+02  (-0.4785483E+02)
 number of electron     288.0000058 magnetization       8.8782370
 augmentation part       53.8167002 magnetization       8.3865152

 DIPCOR: dipole corrections for dipol
 direction  3 min pos   199,
 dipolmoment           0.000000      0.000000     -2.486205 electrons x Angstroem
 Tr[quadrupol]     -1816.036499

 energy correction for charged system         0.000000 eV
 dipol+quadrupol energy correction           -0.604151 eV
 added-field ion interaction        116.132698 eV  (added to PSCEN)


 Broyden mixing:
  rms(total) = 0.75150E+01    rms(broyden)= 0.75124E+01
  rms(prec ) = 0.89439E+01
  weight for this iteration     100.00

 eigenvalues of (default mixing * dielectric matrix)
  average eigenvalue GAMMA=   0.1616
  0.4675  0.1630  0.2358  0.2358  0.1867  0.1006  0.1006  0.0801  0.0134  0.0323

 Free energy of the ion-electron system (eV)
  ---------------------------------------------------
  alpha Z        PSCENC =       710.25777775
  Ewald energy   TEWEN  =    141538.06913758
  -Hartree energ DENC   =   -165660.45645160
  -exchange      EXHF   =         0.00000000
  -V(xc)+E(xc)   XCENC  =      1212.06509309
  PAW double counting   =     25538.27985428   -25983.27785669
  entropy T*S    EENTRO =        -0.24848183
  eigenvalues    EBANDS =     -5151.66557900
  atomic energy  EATOM  =     27456.48054543
  Solvation  Ediel_sol  =         0.00000000
  ---------------------------------------------------
  free energy    TOTEN  =      -340.49596099 eV

  energy without entropy =     -340.24747916  energy(sigma->0) =     -340.37172007


--------------------------------------------------------------------------------------------------------




--------------------------------------- Iteration      1(  16)  ---------------------------------------


    POTLOK:  cpu time      0.0294: real time      0.0381
    SETDIJ:  cpu time      0.9045: real time      0.9066
     EDDAV:  cpu time      0.4652: real time      0.4665
       DOS:  cpu time      0.0003: real time      0.0004
    CHARGE:  cpu time      0.0156: real time      0.0156
    MIXING:  cpu time      0.0016: real time      0.0016
    --------------------------------------------
      LOOP:  cpu time      1.4166: real time      1.4288

 eigenvalue-minimisations  :  1060
 total energy-change (2. order) :-0.7630594E+01  (-0.4323962E+02)
 number of electron     288.0000063 magnetization       8.5884525
 augmentation part       54.7952984 magnetization       7.5853461

 DIPCOR: dipole corrections for dipol
 direction  3 min pos   199,
 dipolmoment           0.000000      0.000000     -3.202004 electrons x Angstroem
 Tr[quadrupol]     -1804.192020

 energy correction for charged system         0.000000 eV
 dipol+quadrupol energy correction           -1.002110 eV
 added-field ion interaction        149.568285 eV  (added to PSCEN)


 Broyden mixing:
  rms(total) = 0.79362E+01    rms(broyden)= 0.79343E+01
  rms(prec ) = 0.85051E+01
  weight for this iteration     100.00

 eigenvalues of (default mixing * dielectric matrix)
  average eigenvalue GAMMA=   0.1930
  0.7839  0.1606  0.2704  0.2222  0.2222  0.1367  0.0990  0.0990  0.0829  0.0134
  0.0324

 Free energy of the ion-electron system (eV)
  ---------------------------------------------------
  alpha Z        PSCENC =       743.29540656
  Ewald energy   TEWEN  =    141538.06913758
  -Hartree energ DENC   =   -165431.23424111
  -exchange      EXHF   =         0.00000000
  -V(xc)+E(xc)   XCENC  =      1212.47070107
  PAW double counting   =     26123.93424356   -26571.87857805
  entropy T*S    EENTRO =        -0.34807436
  eigenvalues    EBANDS =     -5418.91569604
  atomic energy  EATOM  =     27456.48054543
  Solvation  Ediel_sol  =         0.00000000
  ---------------------------------------------------
  free energy    TOTEN  =      -348.12655536 eV

[...]
   20        1.590   3.483   0.000   0.000   5.073
   21        1.588   3.495   0.000   0.000   5.083
   22        1.587   3.500   0.000   0.000   5.087
   23        1.566   3.526   0.000   0.000   5.092
   24        1.564   3.537   0.000   0.000   5.100
   25        1.583   3.471   0.000   0.000   5.054
   26        1.585   3.464   0.000   0.000   5.050
   27        1.523   3.530   0.000   0.000   5.053
   28        1.524   3.532   0.000   0.000   5.056
   29        1.548   3.537   0.000   0.000   5.085
   30        1.548   3.514   0.000   0.000   5.062
   31        1.528   3.465   0.000   0.000   4.993
   32        1.556   3.430   0.000   0.000   4.986
   33        1.580   3.405   0.000   0.000   4.986
   34        1.549   3.424   0.000   0.000   4.973
   35        1.570   3.173   0.000   0.000   4.743
--------------------------------------------------
tot         47.223 157.616  35.807   1.506 242.153



 magnetization (x)

# of ion       s       p       d       f       tot
--------------------------------------------------
    1       -0.015   0.003   1.949   0.000   1.937
    2        0.021   0.019   3.328   0.000   3.367
    3        0.010   0.005   0.943   0.000   0.958
    4        0.019   0.021   2.578   0.000   2.618
    5        0.019   0.023   2.516   0.000   2.558
    6       -0.016  -0.007  -0.806   0.000  -0.829
    7        0.020   0.019   2.261   0.000   2.300
    8        0.005  -0.002  -0.214   0.000  -0.212
    9       -0.001   0.002   0.023   0.022   0.045
   10       -0.001   0.001   0.026   0.023   0.049
   11        0.000   0.001   0.012   0.002   0.014
   12       -0.001  -0.000   0.009   0.004   0.012
   13       -0.000  -0.001   0.006   0.006   0.011
   14       -0.000  -0.002   0.009   0.005   0.011
   15        0.002  -0.012   0.000   0.000  -0.011
   16        0.002   0.040   0.000   0.000   0.042
   17       -0.001   0.027   0.000   0.000   0.026
   18       -0.001   0.013   0.000   0.000   0.012
   19        0.002   0.014   0.000   0.000   0.016
   20        0.002  -0.016   0.000   0.000  -0.014
   21        0.002  -0.023   0.000   0.000  -0.021
   22        0.002   0.014   0.000   0.000   0.015
   23        0.001   0.031   0.000   0.000   0.032
   24        0.000   0.040   0.000   0.000   0.040
   25        0.000  -0.003   0.000   0.000  -0.003
   26        0.002  -0.018   0.000   0.000  -0.016
   27        0.001  -0.017   0.000   0.000  -0.016
   28        0.000  -0.008   0.000   0.000  -0.008
   29        0.001  -0.008   0.000   0.000  -0.007
   30       -0.000   0.022   0.000   0.000   0.022
   31        0.001   0.000   0.000   0.000   0.001
   32        0.000  -0.013   0.000   0.000  -0.012
   33        0.003  -0.036   0.000   0.000  -0.033
   34        0.002  -0.014   0.000   0.000  -0.012
   35        0.005   0.490   0.000   0.000   0.495
--------------------------------------------------
tot          0.085   0.604  12.639   0.061  13.389
 
    CHARGE:  cpu time      0.0152: real time      0.0152
    FORLOC:  cpu time      0.0032: real time      0.0032
    FORNL :  cpu time      0.0655: real time      0.0657
    STRESS:  cpu time      0.1974: real time      0.1978
    FORCOR:  cpu time      0.0311: real time      0.0311
    FORHAR:  cpu time      0.0055: real time      0.0055
    MIXING:  cpu time      0.0030: real time      0.0030
    OFIELD:  cpu time      0.0000: real time      0.0000

  FORCE on cell =-STRESS in cart. coord.  units (eV):
  Direction    XX          YY          ZZ          XY          YZ          ZX
  --------------------------------------------------------------------------------------
  Alpha Z   594.72923   594.72923   594.72923
  Ewald  154125.25101153613.23914************     7.54489    33.36627   -75.35125
  Hartree160819.42347160672.76756************    11.17294    14.13822   -54.75928
  E(xc)   -1391.71028 -1393.45828 -1392.74211    -0.03434     0.13156    -0.11319
  Local  ************************318544.24158   -25.16539   -47.62819   129.88932
  n-local   160.83959   150.90131   151.40879    -0.74286     0.54076    -2.18673
  augment   616.50933   618.47939   609.28400     3.06417     0.60310     0.06922
  Kinetic  4983.88157  4978.40052  4936.43883     5.73949     3.11045    -0.62168
  Fock        0.00000     0.00000     0.00000     0.00000     0.00000     0.00000
  -------------------------------------------------------------------------------------
  Total      12.99552    -5.04866   -29.67303     1.57889     4.26217    -3.07360
  in kB      22.49261    -8.73820   -51.35800     2.73275     7.37695    -5.31977
  external pressure =      -12.53 kB  Pullay stress =        0.00 kB


 VOLUME and BASIS-vectors are now :
 -----------------------------------------------------------------------------
  energy-cutoff  :      400.00
  volume of cell :      925.69
      direct lattice vectors                 reciprocal lattice vectors
     5.536700000  0.000000000  0.000000000     0.180613001  0.000000000  0.000000000
     0.000000000  5.747300000  0.000000000     0.000000000  0.173994745  0.000000000
     0.000000000  0.000000000 29.090392640     0.000000000  0.000000000  0.034375610

  length of vectors
     5.536700000  5.747300000 29.090392640     0.180613001  0.173994745  0.034375610


 FORCES acting on ions
    electron-ion (+dipol)            ewald-force                    non-local-force                 convergence-correction
 -----------------------------------------------------------------------------------------------
   -.247E+03 -.375E+02 0.453E+04   0.244E+03 0.366E+02 -.452E+04   0.218E+01 0.237E+01 -.843E+01   -.664E-01 -.146E+00 0.662E+00
   0.247E+03 -.375E+02 0.453E+04   -.244E+03 0.366E+02 -.452E+04   -.262E+01 0.217E+01 -.912E+01   0.736E-01 -.275E-01 0.720E+00
   0.779E+01 0.136E+00 0.183E+04   -.772E+01 -.184E+00 -.182E+04   0.238E+00 0.168E+00 -.227E+00   -.528E-01 -.112E-01 -.477E+01
   -.778E+01 0.229E+00 0.183E+04   0.767E+01 -.129E+00 -.182E+04   0.874E-01 -.131E+00 -.759E+00   0.129E-02 -.357E-01 -.447E+01
   -.234E+01 -.123E+01 -.116E+04   0.325E+01 0.589E+00 0.116E+04   -.245E+00 0.745E-01 -.903E+00   0.124E-01 0.322E-01 -.322E+01
   0.720E+01 0.103E-01 -.115E+04   -.763E+01 -.450E+00 0.115E+04   -.360E-01 0.801E-01 -.117E+00   -.321E-01 -.129E-01 -.331E+01
   -.122E+03 0.511E+02 -.416E+04   0.121E+03 -.466E+02 0.416E+04   0.237E+01 -.411E+01 0.402E+01   0.225E+00 0.170E+00 0.125E+01
   0.115E+03 0.480E+02 -.402E+04   -.113E+03 -.439E+02 0.403E+04   -.179E+01 -.260E+01 -.288E+01   -.951E-01 -.254E-01 0.179E+01
   0.724E+02 0.493E+02 0.305E+04   -.717E+02 -.487E+02 -.304E+04   0.542E+00 -.176E+01 0.411E+00   0.285E-02 0.887E-01 -.268E+01
   -.722E+02 0.494E+02 0.304E+04   0.717E+02 -.487E+02 -.304E+04   -.590E+00 -.179E+01 0.315E+00   -.920E-01 0.472E-01 -.261E+01
   -.814E+01 -.583E+02 0.311E+03   0.825E+01 0.571E+02 -.306E+03   -.585E+00 0.211E+01 -.248E+00   -.794E-01 0.635E-01 -.458E+01
   0.786E+01 -.577E+02 0.311E+03   -.766E+01 0.566E+02 -.306E+03   0.403E+00 0.203E+01 -.213E+00   0.165E+00 -.364E-02 -.465E+01
   0.175E+02 0.321E+02 -.245E+04   -.170E+02 -.318E+02 0.245E+04   -.362E+00 -.442E+00 -.385E+00   0.504E-01 -.129E+00 -.109E+01
   -.209E+02 0.305E+02 -.244E+04   0.197E+02 -.300E+02 0.245E+04   0.705E+00 -.363E+00 -.307E+00   -.170E-01 0.539E-01 -.948E+00
   -.894E+02 0.225E+02 0.213E+04   0.952E+02 -.245E+02 -.214E+04   -.150E+01 0.180E+01 0.646E+01   0.136E+00 -.387E+00 -.151E+00
   0.886E+02 0.215E+02 0.213E+04   -.952E+02 -.245E+02 -.214E+04   0.195E+01 0.257E+01 0.651E+01   0.801E+00 0.420E+00 -.193E+00
   0.755E+02 -.181E+02 0.167E+04   -.778E+02 0.186E+02 -.167E+04   0.172E+01 0.292E+00 -.240E+01   0.141E+00 -.103E+00 -.143E+01
   -.763E+02 -.174E+02 0.167E+04   0.778E+02 0.186E+02 -.167E+04   -.126E+01 -.473E+00 -.344E+01   -.739E-01 0.114E+00 -.256E+01
   0.703E+02 0.284E+02 0.104E+04   -.745E+02 -.297E+02 -.104E+04   0.590E-01 0.134E+01 -.443E+01   -.375E+00 -.502E+00 -.235E+01
   -.697E+02 0.272E+02 0.104E+04   0.745E+02 -.298E+02 -.104E+04   -.289E+00 0.193E+01 -.408E+01   -.465E+00 0.404E+00 -.239E+01
   0.685E+02 -.274E+02 0.783E+03   -.735E+02 0.297E+02 -.779E+03   -.100E+01 -.256E+01 -.182E+01   0.425E+00 -.398E+00 -.219E+01
   -.691E+02 -.284E+02 0.783E+03   0.734E+02 0.297E+02 -.779E+03   0.130E+01 -.217E+01 -.160E+01   0.356E+00 0.512E+00 -.220E+01
   -.417E+02 0.188E+02 0.162E+03   0.433E+02 -.198E+02 -.158E+03   -.243E+01 -.199E+01 -.388E+01   -.151E-01 0.717E-01 -.348E+01
   0.415E+02 0.186E+02 0.160E+03   -.437E+02 -.196E+02 -.157E+03   0.248E+01 -.174E+01 -.450E+01   0.473E-01 -.430E-02 -.196E+01
   -.546E+02 -.102E+02 -.448E+03   0.589E+02 0.114E+02 0.449E+03   -.720E-01 0.258E+01 -.398E+01   -.571E+00 -.720E+00 -.179E+01
   0.573E+02 -.108E+02 -.448E+03   -.604E+02 0.110E+02 0.449E+03   0.533E+00 0.203E+01 -.361E+01   -.783E+00 0.663E+00 -.195E+01
   -.632E+02 0.237E+02 -.697E+03   0.668E+02 -.250E+02 0.700E+03   -.492E+01 0.597E+01 -.174E+01   0.843E+00 -.682E+00 -.123E+01
   0.556E+02 0.156E+02 -.697E+03   -.601E+02 -.175E+02 0.700E+03   0.630E+01 0.466E+01 -.104E+01   0.552E+00 0.748E+00 -.142E+01
   0.459E+02 -.283E+01 -.131E+04   -.488E+02 0.274E+01 0.131E+04   0.363E+01 0.688E+01 -.219E+01   -.226E+00 0.114E-01 0.162E+00
   -.356E+02 -.851E+01 -.136E+04   0.370E+02 0.929E+01 0.136E+04   -.678E+01 0.515E+01 -.506E+01   -.283E-01 -.213E-01 -.108E+01
   0.174E+02 -.150E+02 -.193E+04   -.167E+02 0.180E+02 0.193E+04   -.952E+00 -.744E+01 -.680E+01   -.416E-01 -.160E+00 0.271E+00
   -.129E+02 -.220E+02 -.193E+04   0.139E+02 0.237E+02 0.194E+04   0.379E-01 -.656E+01 -.930E+01   -.938E-01 0.206E+00 0.271E+00
   0.119E+03 -.270E+02 -.216E+04   -.133E+03 0.293E+02 0.217E+04   0.868E+01 0.473E+01 -.149E+02   -.141E+00 -.146E+00 0.824E+00
   -.162E+03 -.589E+02 -.212E+04   0.174E+03 0.616E+02 0.213E+04   -.126E+02 -.145E+00 -.139E+02   0.326E+00 0.241E+00 0.878E+00
   0.379E+02 0.961E+01 -.239E+04   -.377E+02 -.101E+02 0.241E+04   -.101E+01 0.429E+00 -.178E+02   -.583E-01 -.285E-01 0.177E+01
 -----------------------------------------------------------------------------------------------
   -.274E+01 0.782E+01 0.135E+03   0.426E-13 0.284E-13 0.909E-12   -.588E+01 0.151E+02 -.112E+03   0.852E+00 0.303E+00 -.501E+02
 
 
 POSITION                                       TOTAL-FORCE (eV/Angst)
 -----------------------------------------------------------------------------------
      0.00000      2.87365      0.10000        -1.015161      0.603175      3.552613
      2.76835      0.00000      0.10000         0.958345      0.563072      2.746243
      2.76835      0.00000      3.94645         0.472386     -0.554437      1.440538
      0.00000      2.87365      3.94645         0.201641     -0.730265      1.534296
      5.53113      2.89145      7.82676         0.894120     -1.194743      1.730440
      2.78074      0.01849      7.82825        -0.275300     -1.036156      1.126165
      2.65304      0.07459     11.60790         1.022513     -0.106612     -0.107194
      0.09018      2.95534     11.83894         0.360691      0.825555      7.067686
      2.81154      3.15527      2.02323         1.508590     -1.712715      0.951461
      5.49351      0.28162      2.02323        -1.004388     -1.750509      0.910325
      2.72516      2.59203      5.86967        -0.338738      0.306184      1.075098
      0.04319      5.46568      5.86967         0.991214      0.214821      1.069073
      2.85275      3.12299      9.76130         0.404605     -0.859736      2.166139
      5.44983      0.25610      9.76244        -0.256720     -0.483186      2.453971
      4.28762      4.63577      0.39541         4.593466     -1.223301      2.947557
      4.01743      1.76212      0.39541        -3.573247     -0.713674      3.054303
      2.35587      5.67488      2.02323        -0.206626     -0.012563     -0.695272
      0.41248      2.80123      2.02323         0.390194      0.171055     -1.543469
      4.01743      1.76212      3.65104        -4.227792     -1.176443     -5.105327
      4.28762      4.63577      3.65104         4.321763     -0.867561     -5.038942
      1.24908      1.11153      4.24186        -5.348740     -1.342927      1.360975
      1.51927      3.98518      4.24186         6.116085     -1.053520      1.350587
      3.18083      0.07242      5.86967        -0.659692     -3.668854     -2.396197
      5.12422      2.94607      5.86967         0.590748     -3.415490     -2.601249
      1.55643      4.03856      7.52133         3.837397      2.386457     -3.712055
      1.21505      1.16523      7.52137        -3.145732      2.232541     -3.872787
      4.35847      4.69440      8.08111        -0.172295      3.343514      0.889594
      3.94335      1.81781      8.08071         2.526860      2.806019      0.977480
      2.37121      5.69204      9.70161         0.742227      6.143304     -2.287401
      0.40834      2.82196      9.69758        -5.136136      5.250755      0.786285
      3.95363      1.67121     11.31664        -0.082913     -5.268834     -1.568563
      4.34803      4.56849     11.33477         1.190577     -5.260589     -4.323192
      1.20775      0.97786     11.93514        -4.762635      6.183506     -2.175796
      1.57797      3.88367     11.93713        -0.236128      2.142427     -2.902864
      5.53471      2.87576     13.72606        -0.681179     -0.740270     -0.860525
 -----------------------------------------------------------------------------------
    total drift:                               -7.767618     23.210065    -27.015912


--------------------------------------------------------------------------------------------------------



  FREE ENERGIE OF THE ION-ELECTRON SYSTEM (eV)
  ---------------------------------------------------
  free  energy   TOTEN  =      -283.04430376 eV

  energy  without entropy=     -282.77674187  energy(sigma->0) =     -282.91052281
 
 d Force = 0.2903683E+00[ 0.461E-01, 0.535E+00]  d Energy =-0.2021282E+00 0.492E+00
 d Force = 0.2860888E+03[ 0.285E+03, 0.287E+03]  d Ewald  = 0.2860850E+03 0.378E-02


--------------------------------------------------------------------------------------------------------


    POTLOK:  cpu time      0.9367: real time      0.9390


--------------------------------------------------------------------------------------------------------


 stress matrix after NEB project (eV)
     12.99552      1.57910     -3.07360
      1.57889     -5.04866      4.26213
     -3.07546      4.26217    -29.67303
  FORCES: max atom, RMS     8.102624    3.461044
  FORCE total and by dimension   20.475810    7.067686
  Stress total and by dimension   33.691027   29.673033


--------------------------------------------------------------------------------------------------------


     LOOP+:  cpu time     44.8012: real time     45.0892
 vacuum level on the upper side and lower side of the slab        10.561         6.437
    4ORBIT:  cpu time      0.0000: real time      0.0000



 total charge

# of ion       s       p       d       f       tot
--------------------------------------------------
    1        0.274   6.178   4.051   0.000  10.503
    2        0.264   6.173   4.138   0.000  10.575
    3        0.302   6.360   4.062   0.000  10.723
    4        0.283   6.358   4.108   0.000  10.750
    5        0.282   6.347   4.047   0.000  10.676
    6        0.304   6.350   4.088   0.000  10.741
    7        0.279   6.313   4.062   0.000  10.654
    8        0.310   6.334   3.948   0.000  10.592
    9        2.006   5.716   0.556   0.246   8.524
   10        2.006   5.715   0.554   0.247   8.522
   11        2.001   5.724   0.544   0.251   8.521
   12        2.001   5.724   0.541   0.251   8.517
   13        2.002   5.713   0.556   0.258   8.529
   14        2.002   5.714   0.553   0.253   8.522
   15        1.602   3.437   0.000   0.000   5.039
   16        1.602   3.436   0.000   0.000   5.037
   17        1.563   3.524   0.000   0.000   5.087
   18        1.564   3.523   0.000   0.000   5.086
   19        1.588   3.489   0.000   0.000   5.077
   20        1.590   3.483   0.000   0.000   5.073
   21        1.588   3.495   0.000   0.000   5.083
   22        1.587   3.500   0.000   0.000   5.087
   23        1.566   3.526   0.000   0.000   5.092
   24        1.564   3.537   0.000   0.000   5.100
   25        1.583   3.471   0.000   0.000   5.054
   26        1.585   3.464   0.000   0.000   5.050
   27        1.523   3.530   0.000   0.000   5.053
   28        1.524   3.532   0.000   0.000   5.056
   29        1.548   3.537   0.000   0.000   5.085
   30        1.548   3.514   0.000   0.000   5.062
   31        1.528   3.465   0.000   0.000   4.993
   32        1.556   3.430   0.000   0.000   4.986
   33        1.580   3.405   0.000   0.000   4.986
   34        1.549   3.424   0.000   0.000   4.973
   35        1.570   3.173   0.000   0.000   4.743
--------------------------------------------------
tot         47.223 157.616  35.807   1.506 242.153



 magnetization (x)

# of ion       s       p       d       f       tot
--------------------------------------------------
    1       -0.015   0.003   1.949   0.000   1.937
    2        0.021   0.019   3.328   0.000   3.367
    3        0.010   0.005   0.943   0.000   0.958
    4        0.019   0.021   2.578   0.000   2.618
    5        0.019   0.023   2.516   0.000   2.558
    6       -0.016  -0.007  -0.806   0.000  -0.829
    7        0.020   0.019   2.261   0.000   2.300
    8        0.005  -0.002  -0.214   0.000  -0.212
    9       -0.001   0.002   0.023   0.022   0.045
   10       -0.001   0.001   0.026   0.023   0.049
   11        0.000   0.001   0.012   0.002   0.014
   12       -0.001  -0.000   0.009   0.004   0.012
   13       -0.000  -0.001   0.006   0.006   0.011
   14       -0.000  -0.002   0.009   0.005   0.011
   15        0.002  -0.012   0.000   0.000  -0.011
   16        0.002   0.040   0.000   0.000   0.042
   17       -0.001   0.027   0.000   0.000   0.026
   18       -0.001   0.013   0.000   0.000   0.012
   19        0.002   0.014   0.000   0.000   0.016
   20        0.002  -0.016   0.000   0.000  -0.014
   21        0.002  -0.023   0.000   0.000  -0.021
   22        0.002   0.014   0.000   0.000   0.015
   23        0.001   0.031   0.000   0.000   0.032
   24        0.000   0.040   0.000   0.000   0.040
   25        0.000  -0.003   0.000   0.000  -0.003
   26        0.002  -0.018   0.000   0.000  -0.016
   27        0.001  -0.017   0.000   0.000  -0.016
   28        0.000  -0.008   0.000   0.000  -0.008
   29        0.001  -0.008   0.000   0.000  -0.007
   30       -0.000   0.022   0.000   0.000   0.022
   31        0.001   0.000   0.000   0.000   0.001
   32        0.000  -0.013   0.000   0.000  -0.012
   33        0.003  -0.036   0.000   0.000  -0.033
   34        0.002  -0.014   0.000   0.000  -0.012
   35        0.005   0.490   0.000   0.000   0.495
--------------------------------------------------
tot          0.085   0.604  12.639   0.061  13.389
 

 total amount of memory used by VASP MPI-rank0    42649. kBytes
=======================================================================

   base      :      30000. kBytes
   nonlr-proj:       2273. kBytes
   fftplans  :       1875. kBytes
   grid      :       5118. kBytes
   one-center:        884. kBytes
   wavefun   :       2499. kBytes
 
  
  
 General timing and accounting informations for this job:
 ========================================================
  
                  Total CPU time used (sec):      222.702
                            User time (sec):      219.500
                          System time (sec):        3.203
                         Elapsed time (sec):      224.717
  
                   Maximum memory used (kb):      205928.
                   Average memory used (kb):          N/A
  
                          Minor page faults:        71765
                          Major page faults:            0
                 Voluntary context switches:         3624
