<?xml version="1.0" encoding="ISO-8859-1"?>
<modeling>
 <generator>
  <i name="program" type="string">vasp </i>
  <i name="version" type="string">6.4.3  </i>
  <i name="subversion" type="string">19Mar24 (build Jul 09 2024 15:45:28) complex                          parallel </i>
  <i name="platform" type="string">LinuxIFC </i>
  <i name="date" type="string">2024 10 29 </i>
  <i name="time" type="string">12:19:51 </i>
 </generator>
 <incar>
  <i type="string" name="PREC">Normal</i>
  <i type="string" name="ALGO">Normal</i>
  <i type="int" name="NSIM">    10</i>
  <i type="int" name="ISPIN">     2</i>
  <i type="int" name="NELM">    30</i>
  <i type="int" name="NELMIN">     5</i>
  <i type="int" name="IBRION">     2</i>
  <i name="EDIFF">      0.00010000</i>
  <i name="EDIFFG">     -0.10000000</i>
  <i type="int" name="NSW">     5</i>
  <i name="ENCUT">    400.00000000</i>
  <i name="POTIM">      0.15000000</i>
  <v name="MAGMOM">      1.00000000      1.00000000      1.00000000      1.00000000      1.00000000      1.00000000      1.00000000      1.00000000      0.00000000      0.00000000      0.00000000      0.00000000      0.00000000      0.00000000      0.00000000      0.00000000      0.00000000      0.00000000      0.00000000      0.00000000
      0.00000000      0.00000000      0.00000000      0.00000000      0.00000000      0.00000000      0.00000000      0.00000000      0.00000000      0.00000000      0.00000000      0.00000000      0.00000000      0.00000000      2.00000000</v>
  <i type="logical" name="LREAL"> T  </i>
  <i type="int" name="ISMEAR">     0</i>
  <i type="logical" name="KGAMMA"> T  </i>
  <i type="int" name="LMAXMIX">     6</i>
  <i type="logical" name="LWAVE"> F  </i>
  <i type="logical" name="LCHARG"> F  </i>
  <i type="int" name="LORBIT">    10</i>
  <i type="logical" name="LASPH"> T  </i>
  <i type="string" name="GGA">PE</i>
  <i type="logical" name="LDIPOL"> T  </i>
  <i type="int" name="IDIPOL">     3</i>
 </incar>
 <primitive_cell>
  <structure name="primitive_cell" >
   <crystal>
    <varray name="basis" >
     <v>       5.53670000       0.00000000       0.00000000 </v>
     <v>       0.00000000       5.74730000       0.00000000 </v>
     <v>       0.00000000       0.00000000      29.09039264 </v>
    </varray>
    <i name="volume">    925.68759245 </i>
    <varray name="rec_basis" >
     <v>       0.18061300       0.00000000       0.00000000 </v>
     <v>       0.00000000       0.17399475       0.00000000 </v>
     <v>       0.00000000       0.00000000       0.03437561 </v>
    </varray>
   </crystal>
   <varray name="positions" >
    <v>       0.00000000       0.50000000       0.00343756 </v>
    <v>       0.50000000       0.00000000       0.00343756 </v>
    <v>       0.50000000       0.00000000       0.13566163 </v>
    <v>       0.00000000       0.50000000       0.13566163 </v>
    <v>       0.99986929       0.49938438       0.26937126 </v>
    <v>       0.50013071       0.99938438       0.26937126 </v>
    <v>       0.48939587       0.00315503       0.40006453 </v>
    <v>       0.01060413       0.50315503       0.40006453 </v>
    <v>       0.50780000       0.54900000       0.06954959 </v>
    <v>       0.99220000       0.04900000       0.06954959 </v>
    <v>       0.49220000       0.45100000       0.20177366 </v>
    <v>       0.00780000       0.95100000       0.20177366 </v>
    <v>       0.50957389       0.54416646       0.33581737 </v>
    <v>       0.99042611       0.04416646       0.33581737 </v>
    <v>       0.77440000       0.80660000       0.01359237 </v>
    <v>       0.72560000       0.30660000       0.01359237 </v>
    <v>       0.42550000       0.98740000       0.06954959 </v>
    <v>       0.07450000       0.48740000       0.06954959 </v>
    <v>       0.72560000       0.30660000       0.12550682 </v>
    <v>       0.77440000       0.80660000       0.12550682 </v>
    <v>       0.22560000       0.19340000       0.14581644 </v>
    <v>       0.27440000       0.69340000       0.14581644 </v>
    <v>       0.57450000       0.01260000       0.20177366 </v>
    <v>       0.92550000       0.51260000       0.20177366 </v>
    <v>       0.28870533       0.69634117       0.25614362 </v>
    <v>       0.21129467       0.19634117       0.25614362 </v>
    <v>       0.79204805       0.80781865       0.27752619 </v>
    <v>       0.70795195       0.30781865       0.27752619 </v>
    <v>       0.42984338       0.00357119       0.33324504 </v>
    <v>       0.07015662       0.50357119       0.33324504 </v>
    <v>       0.71908670       0.30128723       0.38774270 </v>
    <v>       0.78091330       0.80128723       0.38774270 </v>
    <v>       0.21339458       0.19228727       0.40834875 </v>
    <v>       0.28660542       0.69228727       0.40834875 </v>
    <v>       0.00000000       0.50000000       0.47022484 </v>
   </varray>
  </structure>
  <varray name="primitive_index" >
   <v type="int" >        1 </v>
   <v type="int" >        2 </v>
   <v type="int" >        3 </v>
   <v type="int" >        4 </v>
   <v type="int" >        5 </v>
   <v type="int" >        6 </v>
   <v type="int" >        7 </v>
   <v type="int" >        8 </v>
   <v type="int" >        9 </v>
   <v type="int" >       10 </v>
   <v type="int" >       11 </v>
   <v type="int" >       12 </v>
   <v type="int" >       13 </v>
   <v type="int" >       14 </v>
   <v type="int" >       15 </v>
   <v type="int" >       16 </v>
   <v type="int" >       17 </v>
   <v type="int" >       18 </v>
   <v type="int" >       19 </v>
   <v type="int" >       20 </v>
   <v type="int" >       21 </v>
   <v type="int" >       22 </v>
   <v type="int" >       23 </v>
   <v type="int" >       24 </v>
   <v type="int" >       25 </v>
   <v type="int" >       26 </v>
   <v type="int" >       27 </v>
   <v type="int" >       28 </v>
   <v type="int" >       29 </v>
   <v type="int" >       30 </v>
   <v type="int" >       31 </v>
   <v type="int" >       32 </v>
   <v type="int" >       33 </v>
   <v type="int" >       34 </v>
   <v type="int" >       35 </v>
  </varray>
 </primitive_cell>
 <kpoints>
  <generation param="Monkhorst-Pack">
   <v type="int" name="divisions">       1        1        1 </v>
   <v name="usershift">      0.00000000       0.00000000       0.00000000 </v>
   <v name="genvec1">      1.00000000       0.00000000       0.00000000 </v>
   <v name="genvec2">      0.00000000       1.00000000       0.00000000 </v>
   <v name="genvec3">      0.00000000       0.00000000       1.00000000 </v>
   <v name="shift">      0.00000000       0.00000000       0.00000000 </v>
  </generation>
  <varray name="kpointlist" >
   <v>       0.00000000       0.00000000       0.00000000 </v>
  </varray>
  <varray name="weights" >
   <v>       1.00000000 </v>
  </varray>
 </kpoints>
 <parameters>
  <separator name="general" >
   <i type="string" name="SYSTEM">unknown system</i>
   <i type="logical" name="LCOMPAT"> F  </i>
  </separator>
  <separator name="electronic" >
   <i type="string" name="PREC">normal</i>
   <i name="ENMAX">    400.00000000</i>
   <i name="ENAUG">    605.39200000</i>
   <i name="EDIFF">      0.00010000</i>
   <i type="int" name="IALGO">    38</i>
   <i type="int" name="IWAVPR">    11</i>
   <i type="int" name="NBANDS">   180</i>
   <i type="int" name="NBANDSLOW">    -1</i>
   <i type="int" name="NBANDSHIGH">    -1</i>
   <i name="NELECT">    288.00000000</i>
   <i type="int" name="TURBO">     0</i>
   <i type="int" name="IRESTART">     0</i>
   <i type="int" name="NREBOOT">     0</i>
   <i type="int" name="NMIN">     0</i>
   <i name="EREF">      0.00000000</i>
   <separator name="electronic smearing" >
    <i type="int" name="ISMEAR">     0</i>
    <i name="SIGMA">      0.20000000</i>
    <i name="KSPACING">      0.50000000</i>
    <i type="logical" name="KGAMMA"> T  </i>
    <i type="logical" name="KBLOWUP"> T  </i>
   </separator>
   <separator name="electronic projectors" >
    <i type="logical" name="LREAL"> T  </i>
    <v name="ROPT">      0.00000000      0.00000000      0.00000000</v>
    <i type="int" name="LMAXPAW">  -100</i>
    <i type="int" name="LMAXMIX">     6</i>
    <i type="logical" name="NLSPLINE"> F  </i>
   </separator>
   <separator name="electronic startup" >
    <i type="int" name="ISTART">     0</i>
    <i type="int" name="ICHARG">     2</i>
    <i type="int" name="INIWAV">     1</i>
   </separator>
   <separator name="electronic spin" >
    <i type="int" name="ISPIN">     2</i>
    <i type="logical" name="LNONCOLLINEAR"> F  </i>
    <v name="MAGMOM">      1.00000000      1.00000000      1.00000000      1.00000000      1.00000000      1.00000000      1.00000000      1.00000000      0.00000000      0.00000000      0.00000000      0.00000000      0.00000000      0.00000000      0.00000000      0.00000000      0.00000000      0.00000000      0.00000000      0.00000000
      0.00000000      0.00000000      0.00000000      0.00000000      0.00000000      0.00000000      0.00000000      0.00000000      0.00000000      0.00000000      0.00000000      0.00000000      0.00000000      0.00000000      2.00000000</v>
    <i name="NUPDOWN">     -1.00000000</i>
    <i type="logical" name="LSORBIT"> F  </i>
    <v name="SAXIS">      0.00000000      0.00000000      1.00000000</v>
    <i type="logical" name="LSPIRAL"> F  </i>
    <v name="QSPIRAL">      0.00000000      0.00000000      0.00000000</v>
    <i type="logical" name="LZEROZ"> F  </i>
   </separator>
   <separator name="electronic exchange-correlation" >
    <i type="logical" name="LASPH"> T  </i>
   </separator>
   <separator name="electronic convergence" >
    <i type="int" name="NELM">    30</i>
    <i type="int" name="NELMDL">     0</i>
    <i type="int" name="NELMIN">     5</i>
    <i name="ENINI">    400.00000000</i>
    <separator name="electronic convergence detail" >
     <i type="logical" name="LDIAG"> T  </i>
     <i type="logical" name="LSUBROT"> F  </i>
     <i name="WEIMIN">      0.00100000</i>
     <i name="EBREAK">      0.00000014</i>
     <i name="DEPER">      0.30000000</i>
     <i type="int" name="NRMM">     4</i>
     <i name="TIME">      0.40000000</i>
    </separator>
   </separator>
   <separator name="electronic mixer" >
    <i name="AMIX">      0.40000000</i>
    <i name="BMIX">      1.00000000</i>
    <i name="AMIN">      0.10000000</i>
    <i name="AMIX_MAG">      1.60000000</i>
    <i name="BMIX_MAG">      1.00000000</i>
    <separator name="electronic mixer details" >
     <i type="int" name="IMIX">     4</i>
     <i type="logical" name="MIXFIRST"> F  </i>
     <i type="int" name="MAXMIX">   -45</i>
     <i name="WC">    100.00000000</i>
     <i type="int" name="INIMIX">     1</i>
     <i type="int" name="MIXPRE">     1</i>
     <i type="int" name="MREMOVE">     5</i>
    </separator>
   </separator>
   <separator name="electronic dipolcorrection" >
    <i type="logical" name="LDIPOL"> T  </i>
    <i type="logical" name="LMONO"> F  </i>
    <i type="int" name="IDIPOL">     3</i>
    <i name="EPSILON">      1.00000000</i>
    <v name="DIPOL">   -100.00000000   -100.00000000   -100.00000000</v>
    <i name="EFIELD">      0.00000000</i>
    <i type="logical" name="LVACPOTAV"> F  </i>
   </separator>
  </separator>
  <separator name="grids" >
   <i type="int" name="NGX">    28</i>
   <i type="int" name="NGY">    28</i>
   <i type="int" name="NGZ">   144</i>
   <i type="int" name="NGXF">    56</i>
   <i type="int" name="NGYF">    56</i>
   <i type="int" name="NGZF">   288</i>
   <i type="logical" name="ADDGRID"> F  </i>
  </separator>
  <separator name="ionic" >
   <i type="int" name="NSW">     5</i>
   <i type="int" name="IBRION">     2</i>
   <i type="int" name="MDALGO">     0</i>
   <i type="int" name="ISIF">     2</i>
   <i name="PSTRESS">      0.00000000</i>
   <i name="EDIFFG">     -0.10000000</i>
   <i type="int" name="NFREE">     1</i>
   <i name="POTIM">      0.15000000</i>
   <i name="SMASS">     -3.00000000</i>
   <i name="SCALEE">      1.00000000</i>
  </separator>
  <separator name="ionic md" >
   <i name="TEBEG">      0.00010000</i>
   <i name="TEEND">      0.00010000</i>
   <i type="int" name="NBLOCK">     1</i>
   <i type="int" name="KBLOCK">     5</i>
   <i type="int" name="NPACO">   256</i>
   <i name="APACO">     10.00000000</i>
  </separator>
  <separator name="symmetry" >
   <i type="int" name="ISYM">     2</i>
   <i name="SYMPREC">      0.00001000</i>
  </separator>
  <separator name="dos" >
   <i type="int" name="LORBIT">    10</i>
   <v name="RWIGS">     -1.00000000     -1.00000000     -1.00000000</v>
   <i type="int" name="NEDOS">   301</i>
   <i name="EMIN">     10.00000000</i>
   <i name="EMAX">    -10.00000000</i>
   <i name="EFERMI">      0.00000000</i>
  </separator>
  <separator name="writing" >
   <i type="int" name="NWRITE">     2</i>
   <i type="logical" name="LWAVE"> F  </i>
   <i type="logical" name="LDOWNSAMPLE"> F  </i>
   <i type="logical" name="LCHARG"> F  </i>
   <i type="logical" name="LPARD"> F  </i>
   <i type="logical" name="LVTOT"> F  </i>
   <i type="logical" name="LVHAR"> F  </i>
   <i type="logical" name="LELF"> F  </i>
   <i type="logical" name="LOPTICS"> F  </i>
   <v name="STM">      0.00000000      0.00000000      0.00000000      0.00000000      0.00000000      0.00000000      0.00000000</v>
  </separator>
  <separator name="performance" >
   <i type="int" name="NPAR">    10</i>
   <i type="int" name="NSIM">    10</i>
   <i type="int" name="NBLK">    -1</i>
   <i type="logical" name="LPLANE"> T  </i>
   <i type="logical" name="LSCALAPACK"> T  </i>
   <i type="logical" name="LSCAAWARE"> F  </i>
   <i type="logical" name="LSCALU"> F  </i>
   <i type="logical" name="LASYNC"> F  </i>
   <i type="logical" name="LORBITALREAL"> F  </i>
  </separator>
  <separator name="miscellaneous" >
   <i type="int" name="IDIOT">     3</i>
   <i type="int" name="PHON_NSTRUCT">    -1</i>
   <i type="logical" name="LMUSIC"> F  </i>
   <v name="POMASS">     51.99600000    138.90000000     16.00000000</v>
   <v name="DARWINR">      0.00000000      0.00000000      0.00000000</v>
   <v name="DARWINV">      1.00000000      1.00000000      1.00000000</v>
   <i type="logical" name="LCORR"> T  </i>
  </separator>
  <i type="logical" name="GGA_COMPAT"> T  </i>
  <i type="logical" name="LBERRY"> F  </i>
  <i type="int" name="ICORELEVEL">     0</i>
  <i type="logical" name="LDAU"> F  </i>
  <i type="int" name="I_CONSTRAINED_M">     0</i>
  <separator name="electronic exchange-correlation" >
   <i type="string" name="GGA    ">PE</i>
   <i type="string" name="XC_C">1</i>
   <i type="int" name="VOSKOWN">     0</i>
   <i type="logical" name="LHFCALC"> F  </i>
   <i type="string" name="PRECFOCK"></i>
   <i type="logical" name="LSYMGRAD"> F  </i>
   <i type="logical" name="LHFONE"> F  </i>
   <i type="logical" name="LRHFCALC"> F  </i>
   <i type="logical" name="LTHOMAS"> F  </i>
   <i type="logical" name="LMODELHF"> F  </i>
   <i type="logical" name="LFOCKACE"> F  </i>
   <i name="ENCUT4O">     -1.00000000</i>
   <i type="int" name="EXXOEP">     0</i>
   <i type="int" name="FOURORBIT">     0</i>
   <i name="AEXX">      0.00000000</i>
   <i name="HFALPHA">      0.00000000</i>
   <i name="MCALPHA">      0.00000000</i>
   <i name="ALDAX">      1.00000000</i>
   <i name="AGGAX">      1.00000000</i>
   <i name="AMGGAX">      1.00000000</i>
   <i name="ALDAC">      1.00000000</i>
   <i name="AGGAC">      1.00000000</i>
   <i name="AMGGAC">      1.00000000</i>
   <i type="int" name="NKREDX">     1</i>
   <i type="int" name="NKREDY">     1</i>
   <i type="int" name="NKREDZ">     1</i>
   <i type="logical" name="SHIFTRED"> F  </i>
   <i type="logical" name="ODDONLY"> F  </i>
   <i type="logical" name="EVENONLY"> F  </i>
   <i type="int" name="LMAXFOCK">     0</i>
   <i type="int" name="NMAXFOCKAE">     0</i>
   <i type="logical" name="LFOCKAEDFT"> F  </i>
   <i name="HFSCREEN">      0.00000000</i>
   <i name="HFSCREENC">      0.00000000</i>
   <i type="int" name="NBANDSGWLOW">     0</i>
  </separator>
  <separator name="vdW DFT" >
   <i type="logical" name="LUSE_VDW"> F  </i>
   <i type="int" name="IVDW_NL">    -1</i>
   <i type="logical" name="LSPIN_VDW"> F  </i>
   <i name="ZAB_VDW">     -0.84910000</i>
   <i name="GAMMA_VDW">      1.39626340</i>
   <i name="ALPHA_VDW">      0.00000000</i>
   <i name="PARAM1">      0.12340000</i>
   <i name="PARAM2">      1.00000000</i>
   <i name="BPARAM">      6.30000000</i>
   <i name="CPARAM">      0.00930000</i>
  </separator>
  <separator name="model GW" >
   <i type="int" name="MODEL_GW">     0</i>
   <i name="MODEL_EPS0">     15.86893016</i>
   <i name="MODEL_ALPHA">      1.00000000</i>
  </separator>
  <separator name="linear response parameters" >
   <i type="logical" name="LEPSILON"> F  </i>
   <i type="logical" name="LRPA"> F  </i>
   <i type="logical" name="LNABLA"> F  </i>
   <i type="logical" name="LVEL"> F  </i>
   <i name="CSHIFT">      0.10000000</i>
   <i name="OMEGAMAX">     -1.00000000</i>
   <i name="DEG_THRESHOLD">      0.00200000</i>
   <i name="RTIME">     -0.10000000</i>
   <i name="WPLASMAI">      0.00000000</i>
   <v name="DFIELD">      0.00000000      0.00000000      0.00000000</v>
   <v name="WPLASMA">      0.00000000      0.00000000      0.00000000      0.00000000      0.00000000      0.00000000      0.00000000      0.00000000      0.00000000</v>
  </separator>
  <separator name="orbital magnetization" >
   <i type="logical" name="NUCIND"> F  </i>
   <v name="MAGPOS">      0.00000000      0.00000000      0.00000000</v>
   <i type="logical" name="LNICSALL"> T  </i>
   <i type="logical" name="ORBITALMAG"> F  </i>
   <i type="logical" name="LMAGBLOCH"> F  </i>
   <i type="logical" name="LCHIMAG"> F  </i>
   <i type="logical" name="LGAUGE"> T  </i>
   <i type="int" name="MAGATOM">     0</i>
   <v name="MAGDIPOL">      0.00000000      0.00000000      0.00000000</v>
   <v name="AVECCONST">      0.00000000      0.00000000      0.00000000</v>
  </separator>
  <separator name="response functions" >
   <i type="logical" name="LALL_IN_ONE"> F  </i>
   <i type="int" name="IALL_IN_ONE">    -1</i>
   <i type="int" name="NBANDS_WAVE">    -1</i>
   <i type="logical" name="LFINITE_TEMPERATURE"> F  </i>
   <i type="logical" name="LADDER"> F  </i>
   <i type="logical" name="LRPAFORCE"> F  </i>
   <i type="logical" name="LFXC"> F  </i>
   <i type="logical" name="LHARTREE"> T  </i>
   <i type="int" name="IBSE">     0</i>
   <v type="int" name="KPOINT">    -1     0     0     0</v>
   <i type="logical" name="LTCTC"> F  </i>
   <i type="logical" name="LTCTE"> F  </i>
   <i type="logical" name="LTETE"> F  </i>
   <i type="logical" name="LTRIPLET"> F  </i>
   <i type="logical" name="LFXCEPS"> F  </i>
   <i type="logical" name="LFXHEG"> F  </i>
   <i type="int" name="NATURALO">     2</i>
   <i type="logical" name="LHOLEGF"> F  </i>
   <i type="logical" name="L2ORDER"> F  </i>
   <i type="logical" name="LDMP1"> F  </i>
   <i type="logical" name="LMP2LT"> F  </i>
   <i type="logical" name="LSMP2LT"> F  </i>
   <i type="logical" name="LGWLF"> F  </i>
   <i name="ENCUTGW">     -1.60000002</i>
   <i name="ENCUTGWSOFT">     -1.60000002</i>
   <i name="ENCUTLF">     -1.00000000</i>
   <i type="logical" name="ESF_SPLINES"> F  </i>
   <i name="ESF_CONV">      0.01000000</i>
   <i type="int" name="ESF_NINTER">    15</i>
   <i type="int" name="LMAXMP2">    -1</i>
   <i name="SCISSOR">      0.00000000</i>
   <i type="int" name="NOMEGA">     0</i>
   <i type="int" name="NOMEGAR">     0</i>
   <i type="int" name="NBANDSGW">    -1</i>
   <i type="int" name="NBANDSO">    -1</i>
   <i type="int" name="NBANDSV">    -1</i>
   <i type="int" name="NELMGW">     1</i>
   <i type="int" name="NELMHF">     1</i>
   <i type="int" name="DIM">     3</i>
   <i type="int" name="IESPILON">     4</i>
   <i type="int" name="ANTIRES">     0</i>
   <i name="OMEGAMAX">    -30.00000000</i>
   <i name="OMEGAMIN">    -30.00000000</i>
   <i name="OMEGATL">   -200.00000000</i>
   <i type="int" name="OMEGAGRID">     0</i>
   <i name="CSHIFT">     -0.10000000</i>
   <i type="logical" name="LSELFENERGY"> F  </i>
   <i type="logical" name="LSPECTRAL"> F  </i>
   <i type="logical" name="LSPECTRALGW"> F  </i>
   <i type="logical" name="LSINGLES"> F  </i>
   <i type="logical" name="LFERMIGW"> F  </i>
   <i type="logical" name="ODDONLYGW"> F  </i>
   <i type="logical" name="EVENONLYGW"> F  </i>
   <i type="int" name="NKREDLFX">     1</i>
   <i type="int" name="NKREDLFY">     1</i>
   <i type="int" name="NKREDLFZ">     1</i>
   <i type="int" name="MAXMEM">  2800</i>
   <i type="int" name="TELESCOPE">     0</i>
   <i type="int" name="NTAUPAR">    -1</i>
   <i type="int" name="NOMEGAPAR">    -1</i>
   <i name="DAMP_NEWTON">      0.80000001</i>
   <i name="LAMBDA">      1.00000000</i>
  </separator>
  <separator name="External order field" >
   <i name="OFIELD_KAPPA">      0.00000000</i>
   <v name="OFIELD_K">      0.00000000      0.00000000      0.00000000</v>
   <i name="OFIELD_Q6_NEAR">      0.00000000</i>
   <i name="OFIELD_Q6_FAR">      0.00000000</i>
   <i name="OFIELD_A">      0.00000000</i>
  </separator>
  <separator name="optional k-points parameters" >
   <i type="int" name="KPOINTS_OPT_MODE">     1</i>
   <i type="logical" name="LKPOINTS_OPT"> F  </i>
  </separator>
 </parameters>
 <atominfo>
  <atoms>      35 </atoms>
  <types>       3 </types>
  <array name="atoms" >
   <dimension dim="1">ion</dimension>
   <field type="string">element</field>
   <field type="int">atomtype</field>
   <set>
    <rc><c>Cr</c><c>   1</c></rc>
    <rc><c>Cr</c><c>   1</c></rc>
    <rc><c>Cr</c><c>   1</c></rc>
    <rc><c>Cr</c><c>   1</c></rc>
    <rc><c>Cr</c><c>   1</c></rc>
    <rc><c>Cr</c><c>   1</c></rc>
    <rc><c>Cr</c><c>   1</c></rc>
    <rc><c>Cr</c><c>   1</c></rc>
    <rc><c>La</c><c>   2</c></rc>
    <rc><c>La</c><c>   2</c></rc>
    <rc><c>La</c><c>   2</c></rc>
    <rc><c>La</c><c>   2</c></rc>
    <rc><c>La</c><c>   2</c></rc>
    <rc><c>La</c><c>   2</c></rc>
    <rc><c>O </c><c>   3</c></rc>
    <rc><c>O </c><c>   3</c></rc>
    <rc><c>O </c><c>   3</c></rc>
    <rc><c>O </c><c>   3</c></rc>
    <rc><c>O </c><c>   3</c></rc>
    <rc><c>O </c><c>   3</c></rc>
    <rc><c>O </c><c>   3</c></rc>
    <rc><c>O </c><c>   3</c></rc>
    <rc><c>O </c><c>   3</c></rc>
    <rc><c>O </c><c>   3</c></rc>
    <rc><c>O </c><c>   3</c></rc>
    <rc><c>O </c><c>   3</c></rc>
    <rc><c>O </c><c>   3</c></rc>
    <rc><c>O </c><c>   3</c></rc>
    <rc><c>O </c><c>   3</c></rc>
    <rc><c>O </c><c>   3</c></rc>
    <rc><c>O </c><c>   3</c></rc>
    <rc><c>O </c><c>   3</c></rc>
    <rc><c>O </c><c>   3</c></rc>
    <rc><c>O </c><c>   3</c></rc>
    <rc><c>O </c><c>   3</c></rc>
   </set>
  </array>
  <array name="atomtypes" >
   <dimension dim="1">type</dimension>
   <field type="int">atomspertype</field>
   <field type="string">element</field>
   <field>mass</field>
   <field>valence</field>
   <field type="string">pseudopotential</field>
   <set>
    <rc><c>   8</c><c>Cr</c><c>     51.99600000</c><c>     12.00000000</c><c>  PAW_PBE Cr_pv 02Aug2007               </c></rc>
    <rc><c>   6</c><c>La</c><c>    138.90000000</c><c>     11.00000000</c><c>  PAW_PBE La 06Sep2000                  </c></rc>
    <rc><c>  21</c><c>O </c><c>     16.00000000</c><c>      6.00000000</c><c>  PAW_PBE O 08Apr2002                   </c></rc>
   </set>
  </array>
 </atominfo>
 <structure name="initialpos" >
  <crystal>
   <varray name="basis" >
    <v>       5.53670000       0.00000000       0.00000000 </v>
    <v>       0.00000000       5.74730000       0.00000000 </v>
    <v>       0.00000000       0.00000000      29.09039264 </v>
   </varray>
   <i name="volume">    925.68759245 </i>
   <varray name="rec_basis" >
    <v>       0.18061300       0.00000000       0.00000000 </v>
    <v>       0.00000000       0.17399475       0.00000000 </v>
    <v>       0.00000000       0.00000000       0.03437561 </v>
   </varray>
  </crystal>
  <varray name="positions" >
   <v>       0.00000000       0.50000000       0.00343756 </v>
   <v>       0.50000000       0.00000000       0.00343756 </v>
   <v>       0.50000000       0.00000000       0.13566163 </v>
   <v>       0.00000000       0.50000000       0.13566163 </v>
   <v>       0.99986929       0.49938438       0.26937126 </v>
   <v>       0.50013071       0.99938438       0.26937126 </v>
   <v>       0.48939587       0.00315503       0.40006453 </v>
   <v>       0.01060413       0.50315503       0.40006453 </v>
   <v>       0.50780000       0.54900000       0.06954959 </v>
   <v>       0.99220000       0.04900000       0.06954959 </v>
   <v>       0.49220000       0.45100000       0.20177366 </v>
   <v>       0.00780000       0.95100000       0.20177366 </v>
   <v>       0.50957389       0.54416646       0.33581737 </v>
   <v>       0.99042611       0.04416646       0.33581737 </v>
   <v>       0.77440000       0.80660000       0.01359237 </v>
   <v>       0.72560000       0.30660000       0.01359237 </v>
   <v>       0.42550000       0.98740000       0.06954959 </v>
   <v>       0.07450000       0.48740000       0.06954959 </v>
   <v>       0.72560000       0.30660000       0.12550682 </v>
   <v>       0.77440000       0.80660000       0.12550682 </v>
   <v>       0.22560000       0.19340000       0.14581644 </v>
   <v>       0.27440000       0.69340000       0.14581644 </v>
   <v>       0.57450000       0.01260000       0.20177366 </v>
   <v>       0.92550000       0.51260000       0.20177366 </v>
   <v>       0.28870533       0.69634117       0.25614362 </v>
   <v>       0.21129467       0.19634117       0.25614362 </v>
   <v>       0.79204805       0.80781865       0.27752619 </v>
   <v>       0.70795195       0.30781865       0.27752619 </v>
   <v>       0.42984338       0.00357119       0.33324504 </v>
   <v>       0.07015662       0.50357119       0.33324504 </v>
   <v>       0.71908670       0.30128723       0.38774270 </v>
   <v>       0.78091330       0.80128723       0.38774270 </v>
   <v>       0.21339458       0.19228727       0.40834875 </v>
   <v>       0.28660542       0.69228727       0.40834875 </v>
   <v>       0.00000000       0.50000000       0.47022484 </v>
  </varray>
  <varray name="selective"  type="logical" >
   <v type="logical" >  F  F  F </v>
   <v type="logical" >  F  F  F </v>
   <v type="logical" >  F  F  F </v>
   <v type="logical" >  F  F  F </v>
   <v type="logical" >  T  T  T </v>
   <v type="logical" >  T  T  T </v>
   <v type="logical" >  T  T  T </v>
   <v type="logical" >  T  T  T </v>
   <v type="logical" >  F  F  F </v>
   <v type="logical" >  F  F  F </v>
   <v type="logical" >  F  F  F </v>
   <v type="logical" >  F  F  F </v>
   <v type="logical" >  T  T  T </v>
   <v type="logical" >  T  T  T </v>
   <v type="logical" >  F  F  F </v>
   <v type="logical" >  F  F  F </v>
   <v type="logical" >  F  F  F </v>
   <v type="logical" >  F  F  F </v>
   <v type="logical" >  F  F  F </v>
   <v type="logical" >  F  F  F </v>
   <v type="logical" >  F  F  F </v>
   <v type="logical" >  F  F  F </v>
   <v type="logical" >  F  F  F </v>
   <v type="logical" >  F  F  F </v>
   <v type="logical" >  T  T  T </v>
   <v type="logical" >  T  T  T </v>
   <v type="logical" >  T  T  T </v>
   <v type="logical" >  T  T  T </v>
   <v type="logical" >  T  T  T </v>
   <v type="logical" >  T  T  T </v>
   <v type="logical" >  T  T  T </v>
   <v type="logical" >  T  T  T </v>
   <v type="logical" >  T  T  T </v>
   <v type="logical" >  T  T  T </v>
   <v type="logical" >  T  T  T </v>
  </varray>
  <nose>
   <v>      -3.00000000       0.00000000       0.00010000       0.00010000 </v>
  </nose>
 </structure>
 <calculation>
  <scstep>
   <time name="dav">    0.38    0.38</time>
   <time name="total">    1.26    1.26</time>
   <dipole>
    <v name="dipole">      0.00000000       0.00000000       0.00017250 </v>
    <i name="Tr[quadrupol]">  -1837.15731484 </i>
    <i name="Echarged">      0.00000000 </i>
    <i name="Edipol_quadrupol">      0.00000000 </i>
    <i name="Eion">      0.00000000 </i>
   </dipole>
   <energy>
    <i name="alphaZ">    594.73490613 </i>
    <i name="ewald"> 141538.06913758 </i>
    <i name="hartreedc">-166184.00290882 </i>
    <i name="XCdc">   1205.58067903 </i>
    <i name="pawpsdc">  21599.25382036 </i>
    <i name="pawaedc"> -22020.18868056 </i>
    <i name="eentropy">     -0.22337883 </i>
    <i name="bandstr">    259.99910394 </i>
    <i name="atom">  27456.48054543 </i>
    <i name="e_fr_energy">   4449.70322426 </i>
    <i name="e_wo_entrp">   4449.92660309 </i>
    <i name="e_0_energy">   4449.81491368 </i>
   </energy>
  </scstep>
  <scstep>
   <time name="dav">    0.36    0.37</time>
   <time name="total">    0.36    0.37</time>
   <dipole>
    <v name="dipole">      0.00000000       0.00000000       0.00017250 </v>
    <i name="Tr[quadrupol]">  -1837.15731484 </i>
    <i name="Echarged">      0.00000000 </i>
    <i name="Edipol_quadrupol">      0.00000000 </i>
    <i name="Eion">      0.00000000 </i>
   </dipole>
   <energy>
    <i name="e_fr_energy">    973.75209089 </i>
    <i name="e_wo_entrp">    974.36958307 </i>
    <i name="e_0_energy">    974.06083698 </i>
   </energy>
  </scstep>
  <scstep>
   <time name="dav">    0.43    0.44</time>
   <time name="total">    0.43    0.44</time>
   <dipole>
    <v name="dipole">      0.00000000       0.00000000       0.00017250 </v>
    <i name="Tr[quadrupol]">  -1837.15731484 </i>
    <i name="Echarged">      0.00000000 </i>
    <i name="Edipol_quadrupol">      0.00000000 </i>
    <i name="Eion">      0.00000000 </i>
   </dipole>
   <energy>
    <i name="e_fr_energy">   -141.52505011 </i>
    <i name="e_wo_entrp">   -140.48737036 </i>
    <i name="e_0_energy">   -141.00621024 </i>
   </energy>
  </scstep>
  <scstep>
   <time name="dav">    0.51    0.52</time>
   <time name="total">    0.51    0.52</time>
   <dipole>
    <v name="dipole">      0.00000000       0.00000000       0.00017250 </v>
    <i name="Tr[quadrupol]">  -1837.15731484 </i>
    <i name="Echarged">      0.00000000 </i>
    <i name="Edipol_quadrupol">      0.00000000 </i>
    <i name="Eion">      0.00000000 </i>
   </dipole>
   <energy>
    <i name="e_fr_energy">   -347.36871267 </i>
    <i name="e_wo_entrp">   -345.85062972 </i>
    <i name="e_0_energy">   -346.60967120 </i>
   </energy>
  </scstep>
  <scstep>
   <time name="dav">    0.58    0.59</time>
   <time name="total">    0.61    0.62</time>
   <dipole>
    <v name="dipole">      0.00000000       0.00000000       0.00017250 </v>
    <i name="Tr[quadrupol]">  -1837.15731484 </i>
    <i name="Echarged">      0.00000000 </i>
    <i name="Edipol_quadrupol">      0.00000000 </i>
    <i name="Eion">      0.00000000 </i>
   </dipole>
   <energy>
    <i name="e_fr_energy">   -363.54768611 </i>
    <i name="e_wo_entrp">   -362.23257420 </i>
    <i name="e_0_energy">   -362.89013016 </i>
   </energy>
  </scstep>
  <scstep>
   <time name="dav">    0.52    0.52</time>
   <time name="total">    1.47    1.49</time>
   <dipole>
    <v name="dipole">      0.00000000       0.00000000       2.17866834 </v>
    <i name="Tr[quadrupol]">  -1861.11844637 </i>
    <i name="Echarged">      0.00000000 </i>
    <i name="Edipol_quadrupol">      0.00000000 </i>
    <i name="Eion">      0.00000000 </i>
   </dipole>
   <energy>
    <i name="e_fr_energy">   -625.34066876 </i>
    <i name="e_wo_entrp">   -624.94900409 </i>
    <i name="e_0_energy">   -625.14483643 </i>
   </energy>
  </scstep>
  <scstep>
   <time name="dav">    0.57    0.58</time>
   <time name="total">    1.53    1.54</time>
   <dipole>
    <v name="dipole">      0.00000000       0.00000000      -0.58401141 </v>
    <i name="Tr[quadrupol]">  -1851.57301201 </i>
    <i name="Echarged">      0.00000000 </i>
    <i name="Edipol_quadrupol">      0.00000000 </i>
    <i name="Eion">      0.00000000 </i>
   </dipole>
   <energy>
    <i name="e_fr_energy">   -442.73214920 </i>
    <i name="e_wo_entrp">   -442.33584387 </i>
    <i name="e_0_energy">   -442.53399653 </i>
   </energy>
  </scstep>
  <scstep>
   <time name="dav">    0.59    0.59</time>
   <time name="total">    1.54    1.56</time>
   <dipole>
    <v name="dipole">      0.00000000       0.00000000       4.16572890 </v>
    <i name="Tr[quadrupol]">  -1850.24603838 </i>
    <i name="Echarged">      0.00000000 </i>
    <i name="Edipol_quadrupol">      0.00000000 </i>
    <i name="Eion">      0.00000000 </i>
   </dipole>
   <energy>
    <i name="e_fr_energy">   -906.94505892 </i>
    <i name="e_wo_entrp">   -906.64592671 </i>
    <i name="e_0_energy">   -906.79549282 </i>
   </energy>
  </scstep>
  <scstep>
   <time name="dav">    0.63    0.63</time>
   <time name="total">    1.59    1.60</time>
   <dipole>
    <v name="dipole">      0.00000000       0.00000000       4.46315705 </v>
    <i name="Tr[quadrupol]">  -1849.03961240 </i>
    <i name="Echarged">      0.00000000 </i>
    <i name="Edipol_quadrupol">      0.00000000 </i>
    <i name="Eion">      0.00000000 </i>
   </dipole>
   <energy>
    <i name="e_fr_energy">  -1124.61911342 </i>
    <i name="e_wo_entrp">  -1124.28734226 </i>
    <i name="e_0_energy">  -1124.45322784 </i>
   </energy>
  </scstep>
  <scstep>
   <time name="dav">    0.56    0.56</time>
   <time name="total">    1.52    1.53</time>
   <dipole>
    <v name="dipole">      0.00000000       0.00000000       4.24845637 </v>
    <i name="Tr[quadrupol]">  -1851.91364078 </i>
    <i name="Echarged">      0.00000000 </i>
    <i name="Edipol_quadrupol">      0.00000000 </i>
    <i name="Eion">      0.00000000 </i>
   </dipole>
   <energy>
    <i name="e_fr_energy">  -1073.68249929 </i>
    <i name="e_wo_entrp">  -1073.42106802 </i>
    <i name="e_0_energy">  -1073.55178366 </i>
   </energy>
  </scstep>
  <scstep>
   <time name="dav">    0.46    0.46</time>
   <time name="total">    1.41    1.43</time>
   <dipole>
    <v name="dipole">      0.00000000       0.00000000       2.21687045 </v>
    <i name="Tr[quadrupol]">  -1839.80129018 </i>
    <i name="Echarged">      0.00000000 </i>
    <i name="Edipol_quadrupol">      0.00000000 </i>
    <i name="Eion">      0.00000000 </i>
   </dipole>
   <energy>
    <i name="e_fr_energy">   -632.18096455 </i>
    <i name="e_wo_entrp">   -631.74915160 </i>
    <i name="e_0_energy">   -631.96505808 </i>
   </energy>
  </scstep>
  <scstep>
   <time name="dav">    0.56    0.56</time>
   <time name="total">    1.51    1.52</time>
   <dipole>
    <v name="dipole">      0.00000000       0.00000000      -0.51809995 </v>
    <i name="Tr[quadrupol]">  -1818.43092546 </i>
    <i name="Echarged">      0.00000000 </i>
    <i name="Edipol_quadrupol">      0.00000000 </i>
    <i name="Eion">      0.00000000 </i>
   </dipole>
   <energy>
    <i name="e_fr_energy">   -358.97870856 </i>
    <i name="e_wo_entrp">   -358.74588614 </i>
    <i name="e_0_energy">   -358.86229735 </i>
   </energy>
  </scstep>
  <scstep>
   <time name="dav">    0.58    0.58</time>
   <time name="total">    1.53    1.55</time>
   <dipole>
    <v name="dipole">      0.00000000       0.00000000      -0.66755747 </v>
    <i name="Tr[quadrupol]">  -1818.10652168 </i>
    <i name="Echarged">      0.00000000 </i>
    <i name="Edipol_quadrupol">      0.00000000 </i>
    <i name="Eion">      0.00000000 </i>
   </dipole>
   <energy>
    <i name="e_fr_energy">   -376.13917621 </i>
    <i name="e_wo_entrp">   -375.41152456 </i>
    <i name="e_0_energy">   -375.77535039 </i>
   </energy>
  </scstep>
  <scstep>
   <time name="dav">    0.53    0.54</time>
   <time name="total">    1.49    1.50</time>
   <dipole>
    <v name="dipole">      0.00000000       0.00000000      -1.16714364 </v>
    <i name="Tr[quadrupol]">  -1822.27339298 </i>
    <i name="Echarged">      0.00000000 </i>
    <i name="Edipol_quadrupol">      0.00000000 </i>
    <i name="Eion">      0.00000000 </i>
   </dipole>
   <energy>
    <i name="e_fr_energy">   -360.94781114 </i>
    <i name="e_wo_entrp">   -360.58773964 </i>
    <i name="e_0_energy">   -360.76777539 </i>
   </energy>
  </scstep>
  <scstep>
   <time name="dav">    0.43    0.43</time>
   <time name="total">    1.38    1.39</time>
   <dipole>
    <v name="dipole">      0.00000000       0.00000000      -2.48620459 </v>
    <i name="Tr[quadrupol]">  -1816.03649858 </i>
    <i name="Echarged">      0.00000000 </i>
    <i name="Edipol_quadrupol">      0.00000000 </i>
    <i name="Eion">      0.00000000 </i>
   </dipole>
   <energy>
    <i name="e_fr_energy">   -340.49596099 </i>
    <i name="e_wo_entrp">   -340.24747916 </i>
    <i name="e_0_energy">   -340.37172007 </i>
   </energy>
  </scstep>
  <scstep>
   <time name="dav">    0.47    0.47</time>
   <time name="total">    1.42    1.43</time>
   <dipole>
    <v name="dipole">      0.00000000       0.00000000      -3.20200396 </v>
    <i name="Tr[quadrupol]">  -1804.19202027 </i>
    <i name="Echarged">      0.00000000 </i>
    <i name="Edipol_quadrupol">      0.00000000 </i>
    <i name="Eion">      0.00000000 </i>
   </dipole>
   <energy>
    <i name="e_fr_energy">   -348.12655536 </i>
    <i name="e_wo_entrp">   -347.77848100 </i>
    <i name="e_0_energy">   -347.95251818 </i>
   </energy>
  </scstep>
  <scstep>
   <time name="dav">    0.46    0.47</time>
   <time name="total">    1.42    1.43</time>
   <dipole>
    <v name="dipole">      0.00000000       0.00000000      -2.70053179 </v>
    <i name="Tr[quadrupol]">  -1792.45016581 </i>
    <i name="Echarged">      0.00000000 </i>
    <i name="Edipol_quadrupol">      0.00000000 </i>
    <i name="Eion">      0.00000000 </i>
   </dipole>
   <energy>
    <i name="e_fr_energy">   -321.61486953 </i>
    <i name="e_wo_entrp">   -321.12660869 </i>
    <i name="e_0_energy">   -321.37073911 </i>
   </energy>
  </scstep>
  <scstep>
   <time name="dav">    0.40    0.40</time>
   <time name="total">    1.35    1.36</time>
   <dipole>
    <v name="dipole">      0.00000000       0.00000000      -2.91754042 </v>
    <i name="Tr[quadrupol]">  -1790.99745122 </i>
    <i name="Echarged">      0.00000000 </i>
    <i name="Edipol_quadrupol">      0.00000000 </i>
    <i name="Eion">      0.00000000 </i>
   </dipole>
   <energy>
    <i name="e_fr_energy">   -313.89748467 </i>
    <i name="e_wo_entrp">   -313.55223295 </i>
    <i name="e_0_energy">   -313.72485881 </i>
   </energy>
  </scstep>
  <scstep>
   <time name="dav">    0.42    0.42</time>
   <time name="total">    1.37    1.38</time>
   <dipole>
    <v name="dipole">      0.00000000       0.00000000      -2.83707554 </v>
    <i name="Tr[quadrupol]">  -1788.94307377 </i>
    <i name="Echarged">      0.00000000 </i>
    <i name="Edipol_quadrupol">      0.00000000 </i>
    <i name="Eion">      0.00000000 </i>
   </dipole>
   <energy>
    <i name="e_fr_energy">   -309.59812513 </i>
    <i name="e_wo_entrp">   -309.06931938 </i>
    <i name="e_0_energy">   -309.33372225 </i>
   </energy>
  </scstep>
  <scstep>
   <time name="dav">    0.49    0.49</time>
   <time name="total">    1.44    1.45</time>
   <dipole>
    <v name="dipole">      0.00000000       0.00000000      -2.97336219 </v>
    <i name="Tr[quadrupol]">  -1789.31089160 </i>
    <i name="Echarged">      0.00000000 </i>
    <i name="Edipol_quadrupol">      0.00000000 </i>
    <i name="Eion">      0.00000000 </i>
   </dipole>
   <energy>
    <i name="e_fr_energy">   -310.19857016 </i>
    <i name="e_wo_entrp">   -309.82710529 </i>
    <i name="e_0_energy">   -310.01283772 </i>
   </energy>
  </scstep>
  <scstep>
   <time name="dav">    0.54    0.54</time>
   <time name="total">    1.49    1.51</time>
   <dipole>
    <v name="dipole">      0.00000000       0.00000000      -2.89261404 </v>
    <i name="Tr[quadrupol]">  -1786.20002316 </i>
    <i name="Echarged">      0.00000000 </i>
    <i name="Edipol_quadrupol">      0.00000000 </i>
    <i name="Eion">      0.00000000 </i>
   </dipole>
   <energy>
    <i name="e_fr_energy">   -299.34490062 </i>
    <i name="e_wo_entrp">   -298.76587509 </i>
    <i name="e_0_energy">   -299.05538785 </i>
   </energy>
  </scstep>
  <scstep>
   <time name="dav">    0.45    0.45</time>
   <time name="total">    1.41    1.42</time>
   <dipole>
    <v name="dipole">      0.00000000       0.00000000      -2.66595945 </v>
    <i name="Tr[quadrupol]">  -1786.66147826 </i>
    <i name="Echarged">      0.00000000 </i>
    <i name="Edipol_quadrupol">      0.00000000 </i>
    <i name="Eion">      0.00000000 </i>
   </dipole>
   <energy>
    <i name="e_fr_energy">   -298.88499206 </i>
    <i name="e_wo_entrp">   -298.33278323 </i>
    <i name="e_0_energy">   -298.60888764 </i>
   </energy>
  </scstep>
  <scstep>
   <time name="dav">    0.47    0.47</time>
   <time name="total">    1.43    1.44</time>
   <dipole>
    <v name="dipole">      0.00000000       0.00000000      -2.81710893 </v>
    <i name="Tr[quadrupol]">  -1789.31162954 </i>
    <i name="Echarged">      0.00000000 </i>
    <i name="Edipol_quadrupol">      0.00000000 </i>
    <i name="Eion">      0.00000000 </i>
   </dipole>
   <energy>
    <i name="e_fr_energy">   -293.91945159 </i>
    <i name="e_wo_entrp">   -293.15357666 </i>
    <i name="e_0_energy">   -293.53651413 </i>
   </energy>
  </scstep>
  <scstep>
   <time name="dav">    0.48    0.49</time>
   <time name="total">    1.44    1.45</time>
   <dipole>
    <v name="dipole">      0.00000000       0.00000000      -2.72579114 </v>
    <i name="Tr[quadrupol]">  -1790.10198422 </i>
    <i name="Echarged">      0.00000000 </i>
    <i name="Edipol_quadrupol">      0.00000000 </i>
    <i name="Eion">      0.00000000 </i>
   </dipole>
   <energy>
    <i name="e_fr_energy">   -293.35993299 </i>
    <i name="e_wo_entrp">   -292.61474982 </i>
    <i name="e_0_energy">   -292.98734141 </i>
   </energy>
  </scstep>
  <scstep>
   <time name="dav">    0.51    0.51</time>
   <time name="total">    1.46    1.47</time>
   <dipole>
    <v name="dipole">      0.00000000       0.00000000      -2.57029196 </v>
    <i name="Tr[quadrupol]">  -1789.87501328 </i>
    <i name="Echarged">      0.00000000 </i>
    <i name="Edipol_quadrupol">      0.00000000 </i>
    <i name="Eion">      0.00000000 </i>
   </dipole>
   <energy>
    <i name="e_fr_energy">   -293.66153978 </i>
    <i name="e_wo_entrp">   -293.03214247 </i>
    <i name="e_0_energy">   -293.34684112 </i>
   </energy>
  </scstep>
  <scstep>
   <time name="dav">    0.53    0.53</time>
   <time name="total">    1.48    1.49</time>
   <dipole>
    <v name="dipole">      0.00000000       0.00000000      -2.56516982 </v>
    <i name="Tr[quadrupol]">  -1789.75390437 </i>
    <i name="Echarged">      0.00000000 </i>
    <i name="Edipol_quadrupol">      0.00000000 </i>
    <i name="Eion">      0.00000000 </i>
   </dipole>
   <energy>
    <i name="e_fr_energy">   -293.97757060 </i>
    <i name="e_wo_entrp">   -293.35240042 </i>
    <i name="e_0_energy">   -293.66498551 </i>
   </energy>
  </scstep>
  <scstep>
   <time name="dav">    0.42    0.42</time>
   <time name="total">    1.38    1.39</time>
   <dipole>
    <v name="dipole">      0.00000000       0.00000000      -2.52873471 </v>
    <i name="Tr[quadrupol]">  -1789.90040757 </i>
    <i name="Echarged">      0.00000000 </i>
    <i name="Edipol_quadrupol">      0.00000000 </i>
    <i name="Eion">      0.00000000 </i>
   </dipole>
   <energy>
    <i name="e_fr_energy">   -292.45588386 </i>
    <i name="e_wo_entrp">   -291.72153170 </i>
    <i name="e_0_energy">   -292.08870778 </i>
   </energy>
  </scstep>
  <scstep>
   <time name="dav">    0.51    0.51</time>
   <time name="total">    1.47    1.47</time>
   <dipole>
    <v name="dipole">      0.00000000       0.00000000      -2.54528353 </v>
    <i name="Tr[quadrupol]">  -1790.50456651 </i>
    <i name="Echarged">      0.00000000 </i>
    <i name="Edipol_quadrupol">      0.00000000 </i>
    <i name="Eion">      0.00000000 </i>
   </dipole>
   <energy>
    <i name="e_fr_energy">   -291.84850863 </i>
    <i name="e_wo_entrp">   -291.10333438 </i>
    <i name="e_0_energy">   -291.47592150 </i>
   </energy>
  </scstep>
  <scstep>
   <time name="dav">    0.48    0.48</time>
   <time name="total">    1.44    1.44</time>
   <dipole>
    <v name="dipole">      0.00000000       0.00000000      -2.53451947 </v>
    <i name="Tr[quadrupol]">  -1790.60164434 </i>
    <i name="Echarged">      0.00000000 </i>
    <i name="Edipol_quadrupol">      0.00000000 </i>
    <i name="Eion">      0.00000000 </i>
   </dipole>
   <energy>
    <i name="e_fr_energy">   -291.87700307 </i>
    <i name="e_wo_entrp">   -291.22786159 </i>
    <i name="e_0_energy">   -291.55243233 </i>
   </energy>
  </scstep>
  <scstep>
   <time name="dav">    0.55    0.55</time>
   <time name="total">    1.49    1.50</time>
   <dipole>
    <v name="dipole">      0.00000000       0.00000000      -2.54307460 </v>
    <i name="Tr[quadrupol]">  -1790.64125656 </i>
    <i name="Echarged">      0.00000000 </i>
    <i name="Edipol_quadrupol">      0.00000000 </i>
    <i name="Eion">      0.00000000 </i>
   </dipole>
   <energy>
    <i name="alphaZ">    698.42487351 </i>
    <i name="ewald"> 141538.06913758 </i>
    <i name="hartreedc">-165298.77744141 </i>
    <i name="XCdc">   1214.31909559 </i>
    <i name="pawpsdc">  26166.19432808 </i>
    <i name="pawaedc"> -26615.95182166 </i>
    <i name="eentropy">     -0.66990002 </i>
    <i name="bandstr">  -5449.84241294 </i>
    <i name="atom">  27456.48054543 </i>
    <i name="e_fr_energy">   -291.75359585 </i>
    <i name="e_wo_entrp">   -291.08369583 </i>
    <i name="e_0_energy">   -291.41864584 </i>
   </energy>
  </scstep>
  <structure>
   <crystal>
    <varray name="basis" >
     <v>       5.53670000       0.00000000       0.00000000 </v>
     <v>       0.00000000       5.74730000       0.00000000 </v>
     <v>       0.00000000       0.00000000      29.09039264 </v>
    </varray>
    <i name="volume">    925.68759245 </i>
    <varray name="rec_basis" >
     <v>       0.18061300       0.00000000       0.00000000 </v>
     <v>       0.00000000       0.17399475       0.00000000 </v>
     <v>       0.00000000       0.00000000       0.03437561 </v>
    </varray>
   </crystal>
   <varray name="positions" >
    <v>       0.00000000       0.50000000       0.00343756 </v>
    <v>       0.50000000       0.00000000       0.00343756 </v>
    <v>       0.50000000       0.00000000       0.13566163 </v>
    <v>       0.00000000       0.50000000       0.13566163 </v>
    <v>       0.99986929       0.49938438       0.26937126 </v>
    <v>       0.50013071       0.99938438       0.26937126 </v>
    <v>       0.48939587       0.00315503       0.40006453 </v>
    <v>       0.01060413       0.50315503       0.40006453 </v>
    <v>       0.50780000       0.54900000       0.06954959 </v>
    <v>       0.99220000       0.04900000       0.06954959 </v>
    <v>       0.49220000       0.45100000       0.20177366 </v>
    <v>       0.00780000       0.95100000       0.20177366 </v>
    <v>       0.50957389       0.54416646       0.33581737 </v>
    <v>       0.99042611       0.04416646       0.33581737 </v>
    <v>       0.77440000       0.80660000       0.01359237 </v>
    <v>       0.72560000       0.30660000       0.01359237 </v>
    <v>       0.42550000       0.98740000       0.06954959 </v>
    <v>       0.07450000       0.48740000       0.06954959 </v>
    <v>       0.72560000       0.30660000       0.12550682 </v>
    <v>       0.77440000       0.80660000       0.12550682 </v>
    <v>       0.22560000       0.19340000       0.14581644 </v>
    <v>       0.27440000       0.69340000       0.14581644 </v>
    <v>       0.57450000       0.01260000       0.20177366 </v>
    <v>       0.92550000       0.51260000       0.20177366 </v>
    <v>       0.28870533       0.69634117       0.25614362 </v>
    <v>       0.21129467       0.19634117       0.25614362 </v>
    <v>       0.79204805       0.80781865       0.27752619 </v>
    <v>       0.70795195       0.30781865       0.27752619 </v>
    <v>       0.42984338       0.00357119       0.33324504 </v>
    <v>       0.07015662       0.50357119       0.33324504 </v>
    <v>       0.71908670       0.30128723       0.38774270 </v>
    <v>       0.78091330       0.80128723       0.38774270 </v>
    <v>       0.21339458       0.19228727       0.40834875 </v>
    <v>       0.28660542       0.69228727       0.40834875 </v>
    <v>       0.00000000       0.50000000       0.47022484 </v>
   </varray>
  </structure>
  <varray name="forces" >
   <v>      -2.71836361       1.63309237      -0.87828051 </v>
   <v>       2.67009949       1.78930154      -0.98659864 </v>
   <v>       0.28999795       0.57330087      -0.13809072 </v>
   <v>      -0.08346741       0.51395909      -0.44243353 </v>
   <v>      -0.27238520       0.90632570      -0.64557695 </v>
   <v>       0.49819026       0.88621491      -0.53595219 </v>
   <v>      -2.26613980       2.09183792      -1.18609505 </v>
   <v>       1.14110717       2.27874531       7.09612699 </v>
   <v>       1.40363179      -0.09150553      -1.09452214 </v>
   <v>      -1.36531174      -0.31705512      -1.12479980 </v>
   <v>      -0.70876336       0.99637138      -0.83822493 </v>
   <v>       0.77237223       1.07335934      -0.86437502 </v>
   <v>       1.26120750      -0.12061619      -0.59631753 </v>
   <v>      -1.31474133       0.10739887      -0.58782461 </v>
   <v>       3.34022706       0.14888474       2.29068391 </v>
   <v>      -3.21206884       0.17867242       2.26468088 </v>
   <v>       0.19795077       1.73751269      -2.19226470 </v>
   <v>      -0.49299129       1.64859018      -2.27261016 </v>
   <v>      -4.23547180       0.15225113      -5.06931591 </v>
   <v>       4.25094768       0.18449222      -5.13783298 </v>
   <v>      -5.72497475       0.09407080       0.61865566 </v>
   <v>       5.68470649       0.00126347       0.65833795 </v>
   <v>      -0.78835606      -2.20178507      -3.09766676 </v>
   <v>       0.60415805      -2.20891239      -3.24877277 </v>
   <v>      -2.44155538       1.10009880       3.26105830 </v>
   <v>       2.47023002       1.13057737       3.28449729 </v>
   <v>      -0.61733961       1.56633830       0.18488169 </v>
   <v>       0.54232428       1.55160202       0.14245566 </v>
   <v>       0.44581065      -4.21824982       0.93186344 </v>
   <v>      -0.22147651      -4.34950898       0.27444150 </v>
   <v>      -1.03675373      -1.23753644       1.27147744 </v>
   <v>       0.69754838      -0.72285954       1.39310621 </v>
   <v>       0.83511553      -4.32852785       3.09323692 </v>
   <v>       0.49363727      -3.04800141       2.92975092 </v>
   <v>      -0.09910213       0.50029687       1.24230015 </v>
  </varray>
  <varray name="stress" >
   <v>     203.85650924       0.22734996      -3.44048021 </v>
   <v>       0.22730075     202.81897679      11.70664512 </v>
   <v>      -3.44158351      11.70873150     -88.48857700 </v>
  </varray>
  <energy>
   <i name="e_fr_energy">   -291.75359585 </i>
   <i name="e_wo_entrp">   -291.08369583 </i>
   <i name="e_0_energy">   -291.41864584 </i>
  </energy>
  <time name="totalsc">   41.84   42.18</time>
 </calculation>
 <calculation>
  <scstep>
   <time name="dav">    0.39    0.39</time>
   <time name="total">    1.35    1.35</time>
   <dipole>
    <v name="dipole">      0.00000000       0.00000000      -2.52544065 </v>
    <i name="Tr[quadrupol]">  -1784.01065123 </i>
    <i name="Echarged">      0.00000000 </i>
    <i name="Edipol_quadrupol">      0.00000000 </i>
    <i name="Eion">      0.00000000 </i>
   </dipole>
   <energy>
    <i name="alphaZ">    698.79456445 </i>
    <i name="ewald"> 140895.87713401 </i>
    <i name="hartreedc">-164661.48306889 </i>
    <i name="XCdc">   1214.29616633 </i>
    <i name="pawpsdc">  26155.88953625 </i>
    <i name="pawaedc"> -26605.53237724 </i>
    <i name="eentropy">     -0.58913892 </i>
    <i name="bandstr">  -5444.15597654 </i>
    <i name="atom">  27456.48054543 </i>
    <i name="e_fr_energy">   -290.42261512 </i>
    <i name="e_wo_entrp">   -289.83347621 </i>
    <i name="e_0_energy">   -290.12804566 </i>
   </energy>
  </scstep>
  <scstep>
   <time name="dav">    0.58    0.58</time>
   <time name="total">    1.53    1.54</time>
   <dipole>
    <v name="dipole">      0.00000000       0.00000000      -4.21477831 </v>
    <i name="Tr[quadrupol]">  -1806.99288591 </i>
    <i name="Echarged">      0.00000000 </i>
    <i name="Edipol_quadrupol">      0.00000000 </i>
    <i name="Eion">      0.00000000 </i>
   </dipole>
   <energy>
    <i name="e_fr_energy">   -511.35322070 </i>
    <i name="e_wo_entrp">   -510.75226594 </i>
    <i name="e_0_energy">   -511.05274332 </i>
   </energy>
  </scstep>
  <scstep>
   <time name="dav">    0.54    0.54</time>
   <time name="total">    1.50    1.51</time>
   <dipole>
    <v name="dipole">      0.00000000       0.00000000      -3.62138082 </v>
    <i name="Tr[quadrupol]">  -1807.71534104 </i>
    <i name="Echarged">      0.00000000 </i>
    <i name="Edipol_quadrupol">      0.00000000 </i>
    <i name="Eion">      0.00000000 </i>
   </dipole>
   <energy>
    <i name="e_fr_energy">   -464.65901334 </i>
    <i name="e_wo_entrp">   -464.21068876 </i>
    <i name="e_0_energy">   -464.43485105 </i>
   </energy>
  </scstep>
  <scstep>
   <time name="dav">    0.49    0.49</time>
   <time name="total">    1.44    1.45</time>
   <dipole>
    <v name="dipole">      0.00000000       0.00000000      -1.92087799 </v>
    <i name="Tr[quadrupol]">  -1805.27043298 </i>
    <i name="Echarged">      0.00000000 </i>
    <i name="Edipol_quadrupol">      0.00000000 </i>
    <i name="Eion">      0.00000000 </i>
   </dipole>
   <energy>
    <i name="e_fr_energy">   -321.52617606 </i>
    <i name="e_wo_entrp">   -321.30226688 </i>
    <i name="e_0_energy">   -321.41422147 </i>
   </energy>
  </scstep>
  <scstep>
   <time name="dav">    0.44    0.44</time>
   <time name="total">    1.39    1.40</time>
   <dipole>
    <v name="dipole">      0.00000000       0.00000000      -1.31628230 </v>
    <i name="Tr[quadrupol]">  -1797.84118490 </i>
    <i name="Echarged">      0.00000000 </i>
    <i name="Edipol_quadrupol">      0.00000000 </i>
    <i name="Eion">      0.00000000 </i>
   </dipole>
   <energy>
    <i name="e_fr_energy">   -295.37761030 </i>
    <i name="e_wo_entrp">   -295.00786646 </i>
    <i name="e_0_energy">   -295.19273838 </i>
   </energy>
  </scstep>
  <scstep>
   <time name="dav">    0.52    0.52</time>
   <time name="total">    1.47    1.49</time>
   <dipole>
    <v name="dipole">      0.00000000       0.00000000      -2.13107470 </v>
    <i name="Tr[quadrupol]">  -1802.83051963 </i>
    <i name="Echarged">      0.00000000 </i>
    <i name="Edipol_quadrupol">      0.00000000 </i>
    <i name="Eion">      0.00000000 </i>
   </dipole>
   <energy>
    <i name="e_fr_energy">   -299.09126489 </i>
    <i name="e_wo_entrp">   -298.62523100 </i>
    <i name="e_0_energy">   -298.85824795 </i>
   </energy>
  </scstep>
  <scstep>
   <time name="dav">    0.50    0.51</time>
   <time name="total">    1.46    1.47</time>
   <dipole>
    <v name="dipole">      0.00000000       0.00000000      -1.38182766 </v>
    <i name="Tr[quadrupol]">  -1807.41634704 </i>
    <i name="Echarged">      0.00000000 </i>
    <i name="Edipol_quadrupol">      0.00000000 </i>
    <i name="Eion">      0.00000000 </i>
   </dipole>
   <energy>
    <i name="e_fr_energy">   -306.47828530 </i>
    <i name="e_wo_entrp">   -306.28306057 </i>
    <i name="e_0_energy">   -306.38067293 </i>
   </energy>
  </scstep>
  <scstep>
   <time name="dav">    0.51    0.51</time>
   <time name="total">    1.46    1.47</time>
   <dipole>
    <v name="dipole">      0.00000000       0.00000000      -1.44482462 </v>
    <i name="Tr[quadrupol]">  -1806.83637735 </i>
    <i name="Echarged">      0.00000000 </i>
    <i name="Edipol_quadrupol">      0.00000000 </i>
    <i name="Eion">      0.00000000 </i>
   </dipole>
   <energy>
    <i name="e_fr_energy">   -289.04885671 </i>
    <i name="e_wo_entrp">   -288.65768578 </i>
    <i name="e_0_energy">   -288.85327124 </i>
   </energy>
  </scstep>
  <scstep>
   <time name="dav">    0.44    0.44</time>
   <time name="total">    1.39    1.40</time>
   <dipole>
    <v name="dipole">      0.00000000       0.00000000      -1.22360155 </v>
    <i name="Tr[quadrupol]">  -1807.25485949 </i>
    <i name="Echarged">      0.00000000 </i>
    <i name="Edipol_quadrupol">      0.00000000 </i>
    <i name="Eion">      0.00000000 </i>
   </dipole>
   <energy>
    <i name="e_fr_energy">   -290.24911205 </i>
    <i name="e_wo_entrp">   -290.01293196 </i>
    <i name="e_0_energy">   -290.13102201 </i>
   </energy>
  </scstep>
  <scstep>
   <time name="dav">    0.48    0.48</time>
   <time name="total">    1.43    1.44</time>
   <dipole>
    <v name="dipole">      0.00000000       0.00000000      -1.28777366 </v>
    <i name="Tr[quadrupol]">  -1808.63589958 </i>
    <i name="Echarged">      0.00000000 </i>
    <i name="Edipol_quadrupol">      0.00000000 </i>
    <i name="Eion">      0.00000000 </i>
   </dipole>
   <energy>
    <i name="e_fr_energy">   -283.82158382 </i>
    <i name="e_wo_entrp">   -283.16951109 </i>
    <i name="e_0_energy">   -283.49554746 </i>
   </energy>
  </scstep>
  <scstep>
   <time name="dav">    0.47    0.47</time>
   <time name="total">    1.43    1.44</time>
   <dipole>
    <v name="dipole">      0.00000000       0.00000000      -1.24560489 </v>
    <i name="Tr[quadrupol]">  -1809.25670273 </i>
    <i name="Echarged">      0.00000000 </i>
    <i name="Edipol_quadrupol">      0.00000000 </i>
    <i name="Eion">      0.00000000 </i>
   </dipole>
   <energy>
    <i name="e_fr_energy">   -283.90926322 </i>
    <i name="e_wo_entrp">   -283.46329576 </i>
    <i name="e_0_energy">   -283.68627949 </i>
   </energy>
  </scstep>
  <scstep>
   <time name="dav">    0.53    0.53</time>
   <time name="total">    1.48    1.50</time>
   <dipole>
    <v name="dipole">      0.00000000       0.00000000      -1.21563494 </v>
    <i name="Tr[quadrupol]">  -1809.56678345 </i>
    <i name="Echarged">      0.00000000 </i>
    <i name="Edipol_quadrupol">      0.00000000 </i>
    <i name="Eion">      0.00000000 </i>
   </dipole>
   <energy>
    <i name="e_fr_energy">   -283.90868240 </i>
    <i name="e_wo_entrp">   -283.51001944 </i>
    <i name="e_0_energy">   -283.70935092 </i>
   </energy>
  </scstep>
  <scstep>
   <time name="dav">    0.54    0.54</time>
   <time name="total">    1.49    1.50</time>
   <dipole>
    <v name="dipole">      0.00000000       0.00000000      -1.21626961 </v>
    <i name="Tr[quadrupol]">  -1809.52339117 </i>
    <i name="Echarged">      0.00000000 </i>
    <i name="Edipol_quadrupol">      0.00000000 </i>
    <i name="Eion">      0.00000000 </i>
   </dipole>
   <energy>
    <i name="e_fr_energy">   -283.86390723 </i>
    <i name="e_wo_entrp">   -283.46362683 </i>
    <i name="e_0_energy">   -283.66376703 </i>
   </energy>
  </scstep>
  <scstep>
   <time name="dav">    0.46    0.46</time>
   <time name="total">    1.43    1.43</time>
   <dipole>
    <v name="dipole">      0.00000000       0.00000000      -1.25422931 </v>
    <i name="Tr[quadrupol]">  -1809.55539974 </i>
    <i name="Echarged">      0.00000000 </i>
    <i name="Edipol_quadrupol">      0.00000000 </i>
    <i name="Eion">      0.00000000 </i>
   </dipole>
   <energy>
    <i name="e_fr_energy">   -283.38494923 </i>
    <i name="e_wo_entrp">   -282.92056209 </i>
    <i name="e_0_energy">   -283.15275566 </i>
   </energy>
  </scstep>
  <scstep>
   <time name="dav">    0.48    0.48</time>
   <time name="total">    1.44    1.45</time>
   <dipole>
    <v name="dipole">      0.00000000       0.00000000      -1.24699305 </v>
    <i name="Tr[quadrupol]">  -1809.57604575 </i>
    <i name="Echarged">      0.00000000 </i>
    <i name="Edipol_quadrupol">      0.00000000 </i>
    <i name="Eion">      0.00000000 </i>
   </dipole>
   <energy>
    <i name="e_fr_energy">   -283.37573259 </i>
    <i name="e_wo_entrp">   -282.91108957 </i>
    <i name="e_0_energy">   -283.14341108 </i>
   </energy>
  </scstep>
  <scstep>
   <time name="dav">    0.42    0.42</time>
   <time name="total">    1.37    1.38</time>
   <dipole>
    <v name="dipole">      0.00000000       0.00000000      -1.20673729 </v>
    <i name="Tr[quadrupol]">  -1809.65284958 </i>
    <i name="Echarged">      0.00000000 </i>
    <i name="Edipol_quadrupol">      0.00000000 </i>
    <i name="Eion">      0.00000000 </i>
   </dipole>
   <energy>
    <i name="e_fr_energy">   -283.31595626 </i>
    <i name="e_wo_entrp">   -282.76426566 </i>
    <i name="e_0_energy">   -283.04011096 </i>
   </energy>
  </scstep>
  <scstep>
   <time name="dav">    0.51    0.51</time>
   <time name="total">    1.47    1.48</time>
   <dipole>
    <v name="dipole">      0.00000000       0.00000000      -1.21258391 </v>
    <i name="Tr[quadrupol]">  -1810.48156534 </i>
    <i name="Echarged">      0.00000000 </i>
    <i name="Edipol_quadrupol">      0.00000000 </i>
    <i name="Eion">      0.00000000 </i>
   </dipole>
   <energy>
    <i name="e_fr_energy">   -282.92097595 </i>
    <i name="e_wo_entrp">   -282.37669621 </i>
    <i name="e_0_energy">   -282.64883608 </i>
   </energy>
  </scstep>
  <scstep>
   <time name="dav">    0.46    0.46</time>
   <time name="total">    1.41    1.42</time>
   <dipole>
    <v name="dipole">      0.00000000       0.00000000      -1.16479546 </v>
    <i name="Tr[quadrupol]">  -1810.93338613 </i>
    <i name="Echarged">      0.00000000 </i>
    <i name="Edipol_quadrupol">      0.00000000 </i>
    <i name="Eion">      0.00000000 </i>
   </dipole>
   <energy>
    <i name="e_fr_energy">   -283.14580868 </i>
    <i name="e_wo_entrp">   -282.60153124 </i>
    <i name="e_0_energy">   -282.87366996 </i>
   </energy>
  </scstep>
  <scstep>
   <time name="dav">    0.55    0.56</time>
   <time name="total">    1.51    1.52</time>
   <dipole>
    <v name="dipole">      0.00000000       0.00000000      -1.14425506 </v>
    <i name="Tr[quadrupol]">  -1811.08338275 </i>
    <i name="Echarged">      0.00000000 </i>
    <i name="Edipol_quadrupol">      0.00000000 </i>
    <i name="Eion">      0.00000000 </i>
   </dipole>
   <energy>
    <i name="e_fr_energy">   -283.29980557 </i>
    <i name="e_wo_entrp">   -282.80367745 </i>
    <i name="e_0_energy">   -283.05174151 </i>
   </energy>
  </scstep>
  <scstep>
   <time name="dav">    0.52    0.52</time>
   <time name="total">    1.47    1.48</time>
   <dipole>
    <v name="dipole">      0.00000000       0.00000000      -1.14182900 </v>
    <i name="Tr[quadrupol]">  -1811.00752624 </i>
    <i name="Echarged">      0.00000000 </i>
    <i name="Edipol_quadrupol">      0.00000000 </i>
    <i name="Eion">      0.00000000 </i>
   </dipole>
   <energy>
    <i name="e_fr_energy">   -283.37968532 </i>
    <i name="e_wo_entrp">   -282.88691070 </i>
    <i name="e_0_energy">   -283.13329801 </i>
   </energy>
  </scstep>
  <scstep>
   <time name="dav">    0.41    0.41</time>
   <time name="total">    1.37    1.38</time>
   <dipole>
    <v name="dipole">      0.00000000       0.00000000      -1.14061657 </v>
    <i name="Tr[quadrupol]">  -1811.16206217 </i>
    <i name="Echarged">      0.00000000 </i>
    <i name="Edipol_quadrupol">      0.00000000 </i>
    <i name="Eion">      0.00000000 </i>
   </dipole>
   <energy>
    <i name="e_fr_energy">   -283.42483297 </i>
    <i name="e_wo_entrp">   -282.89654591 </i>
    <i name="e_0_energy">   -283.16068944 </i>
   </energy>
  </scstep>
  <scstep>
   <time name="dav">    0.40    0.40</time>
   <time name="total">    1.35    1.36</time>
   <dipole>
    <v name="dipole">      0.00000000       0.00000000      -1.05838125 </v>
    <i name="Tr[quadrupol]">  -1812.73624442 </i>
    <i name="Echarged">      0.00000000 </i>
    <i name="Edipol_quadrupol">      0.00000000 </i>
    <i name="Eion">      0.00000000 </i>
   </dipole>
   <energy>
    <i name="e_fr_energy">   -283.04233563 </i>
    <i name="e_wo_entrp">   -282.50740645 </i>
    <i name="e_0_energy">   -282.77487104 </i>
   </energy>
  </scstep>
  <scstep>
   <time name="dav">    0.50    0.50</time>
   <time name="total">    1.45    1.46</time>
   <dipole>
    <v name="dipole">      0.00000000       0.00000000      -1.01079201 </v>
    <i name="Tr[quadrupol]">  -1814.52228401 </i>
    <i name="Echarged">      0.00000000 </i>
    <i name="Edipol_quadrupol">      0.00000000 </i>
    <i name="Eion">      0.00000000 </i>
   </dipole>
   <energy>
    <i name="e_fr_energy">   -282.41484424 </i>
    <i name="e_wo_entrp">   -281.84592906 </i>
    <i name="e_0_energy">   -282.13038665 </i>
   </energy>
  </scstep>
  <scstep>
   <time name="dav">    0.47    0.47</time>
   <time name="total">    1.43    1.44</time>
   <dipole>
    <v name="dipole">      0.00000000       0.00000000      -1.00315170 </v>
    <i name="Tr[quadrupol]">  -1814.54155103 </i>
    <i name="Echarged">      0.00000000 </i>
    <i name="Edipol_quadrupol">      0.00000000 </i>
    <i name="Eion">      0.00000000 </i>
   </dipole>
   <energy>
    <i name="e_fr_energy">   -282.71658721 </i>
    <i name="e_wo_entrp">   -282.16559182 </i>
    <i name="e_0_energy">   -282.44108951 </i>
   </energy>
  </scstep>
  <scstep>
   <time name="dav">    0.38    0.38</time>
   <time name="total">    1.33    1.34</time>
   <dipole>
    <v name="dipole">      0.00000000       0.00000000      -1.00216170 </v>
    <i name="Tr[quadrupol]">  -1814.52892735 </i>
    <i name="Echarged">      0.00000000 </i>
    <i name="Edipol_quadrupol">      0.00000000 </i>
    <i name="Eion">      0.00000000 </i>
   </dipole>
   <energy>
    <i name="e_fr_energy">   -282.16897986 </i>
    <i name="e_wo_entrp">   -281.58740698 </i>
    <i name="e_0_energy">   -281.87819342 </i>
   </energy>
  </scstep>
  <scstep>
   <time name="dav">    0.53    0.53</time>
   <time name="total">    1.48    1.50</time>
   <dipole>
    <v name="dipole">      0.00000000       0.00000000      -1.00117315 </v>
    <i name="Tr[quadrupol]">  -1814.43432951 </i>
    <i name="Echarged">      0.00000000 </i>
    <i name="Edipol_quadrupol">      0.00000000 </i>
    <i name="Eion">      0.00000000 </i>
   </dipole>
   <energy>
    <i name="e_fr_energy">   -281.81775999 </i>
    <i name="e_wo_entrp">   -281.21162912 </i>
    <i name="e_0_energy">   -281.51469455 </i>
   </energy>
  </scstep>
  <scstep>
   <time name="dav">    0.39    0.39</time>
   <time name="total">    1.35    1.36</time>
   <dipole>
    <v name="dipole">      0.00000000       0.00000000      -1.00070391 </v>
    <i name="Tr[quadrupol]">  -1814.49063127 </i>
    <i name="Echarged">      0.00000000 </i>
    <i name="Edipol_quadrupol">      0.00000000 </i>
    <i name="Eion">      0.00000000 </i>
   </dipole>
   <energy>
    <i name="e_fr_energy">   -282.12796344 </i>
    <i name="e_wo_entrp">   -281.50624356 </i>
    <i name="e_0_energy">   -281.81710350 </i>
   </energy>
  </scstep>
  <scstep>
   <time name="dav">    0.40    0.40</time>
   <time name="total">    1.36    1.37</time>
   <dipole>
    <v name="dipole">      0.00000000       0.00000000      -0.99794927 </v>
    <i name="Tr[quadrupol]">  -1814.47466590 </i>
    <i name="Echarged">      0.00000000 </i>
    <i name="Edipol_quadrupol">      0.00000000 </i>
    <i name="Eion">      0.00000000 </i>
   </dipole>
   <energy>
    <i name="e_fr_energy">   -281.86225139 </i>
    <i name="e_wo_entrp">   -281.24663952 </i>
    <i name="e_0_energy">   -281.55444545 </i>
   </energy>
  </scstep>
  <scstep>
   <time name="dav">    0.57    0.57</time>
   <time name="total">    1.53    1.54</time>
   <dipole>
    <v name="dipole">      0.00000000       0.00000000      -1.00462454 </v>
    <i name="Tr[quadrupol]">  -1814.46443429 </i>
    <i name="Echarged">      0.00000000 </i>
    <i name="Edipol_quadrupol">      0.00000000 </i>
    <i name="Eion">      0.00000000 </i>
   </dipole>
   <energy>
    <i name="e_fr_energy">   -281.84494249 </i>
    <i name="e_wo_entrp">   -281.23230909 </i>
    <i name="e_0_energy">   -281.53862579 </i>
   </energy>
  </scstep>
  <scstep>
   <time name="dav">    0.40    0.40</time>
   <time name="total">    1.34    1.35</time>
   <dipole>
    <v name="dipole">      0.00000000       0.00000000      -1.00345490 </v>
    <i name="Tr[quadrupol]">  -1814.50057529 </i>
    <i name="Echarged">      0.00000000 </i>
    <i name="Edipol_quadrupol">      0.00000000 </i>
    <i name="Eion">      0.00000000 </i>
   </dipole>
   <energy>
    <i name="alphaZ">    664.75879982 </i>
    <i name="ewald"> 140895.87713401 </i>
    <i name="hartreedc">-165403.07675431 </i>
    <i name="XCdc">   1217.27958556 </i>
    <i name="pawpsdc">  27361.04462288 </i>
    <i name="pawaedc"> -27810.25096430 </i>
    <i name="eentropy">     -0.61194105 </i>
    <i name="bandstr">  -4663.30301602 </i>
    <i name="atom">  27456.48054543 </i>
    <i name="e_fr_energy">   -281.80198797 </i>
    <i name="e_wo_entrp">   -281.19004692 </i>
    <i name="e_0_energy">   -281.49601745 </i>
   </energy>
  </scstep>
  <structure>
   <crystal>
    <varray name="basis" >
     <v>       5.53670000       0.00000000       0.00000000 </v>
     <v>       0.00000000       5.74730000       0.00000000 </v>
     <v>       0.00000000       0.00000000      29.09039264 </v>
    </varray>
    <i name="volume">    925.68759245 </i>
    <varray name="rec_basis" >
     <v>       0.18061300       0.00000000       0.00000000 </v>
     <v>       0.00000000       0.17399475       0.00000000 </v>
     <v>       0.00000000       0.00000000       0.03437561 </v>
    </varray>
   </crystal>
   <varray name="positions" >
    <v>       0.00000000       0.50000000       0.00343756 </v>
    <v>       0.50000000       0.00000000       0.00343756 </v>
    <v>       0.50000000       0.00000000       0.13566163 </v>
    <v>       0.00000000       0.50000000       0.13566163 </v>
    <v>       0.99915728       0.50166668       0.26905007 </v>
    <v>       0.50143297       0.00161604       0.26910461 </v>
    <v>       0.48347223       0.00842268       0.39947443 </v>
    <v>       0.01358696       0.50889335       0.40359493 </v>
    <v>       0.50780000       0.54900000       0.06954959 </v>
    <v>       0.99220000       0.04900000       0.06954959 </v>
    <v>       0.49220000       0.45100000       0.20177366 </v>
    <v>       0.00780000       0.95100000       0.20177366 </v>
    <v>       0.51287065       0.54386272       0.33552070 </v>
    <v>       0.98698941       0.04443691       0.33552492 </v>
    <v>       0.77440000       0.80660000       0.01359237 </v>
    <v>       0.72560000       0.30660000       0.01359237 </v>
    <v>       0.42550000       0.98740000       0.06954959 </v>
    <v>       0.07450000       0.48740000       0.06954959 </v>
    <v>       0.72560000       0.30660000       0.12550682 </v>
    <v>       0.77440000       0.80660000       0.12550682 </v>
    <v>       0.22560000       0.19340000       0.14581644 </v>
    <v>       0.27440000       0.69340000       0.14581644 </v>
    <v>       0.57450000       0.01260000       0.20177366 </v>
    <v>       0.92550000       0.51260000       0.20177366 </v>
    <v>       0.28232316       0.69911143       0.25776603 </v>
    <v>       0.21775179       0.19918818       0.25777769 </v>
    <v>       0.79043434       0.81176299       0.27761817 </v>
    <v>       0.70936958       0.31172588       0.27759707 </v>
    <v>       0.43100872       0.99294883       0.33370865 </v>
    <v>       0.06957769       0.49261830       0.33338158 </v>
    <v>       0.71637666       0.29817088       0.38837528 </v>
    <v>       0.78273667       0.79946693       0.38843579 </v>
    <v>       0.21557755       0.18138721       0.40988767 </v>
    <v>       0.28789578       0.68461182       0.40980633 </v>
    <v>       0.99974095       0.50125984       0.47084290 </v>
   </varray>
  </structure>
  <varray name="forces" >
   <v>      -1.07411389       1.46817469       2.22587370 </v>
   <v>       0.47293257       1.40623896       2.09461092 </v>
   <v>       0.06586542       0.22159191       1.05089696 </v>
   <v>       0.13571228       0.20038216       0.69478249 </v>
   <v>       0.35455328      -0.08535267       1.37286259 </v>
   <v>      -0.06792339       0.16342238       1.24173906 </v>
   <v>      -0.19198750       0.12373429      -0.71367928 </v>
   <v>       0.45634950       0.97476178       6.00298982 </v>
   <v>       1.12066578      -0.93118227      -0.20320485 </v>
   <v>      -0.96539120      -0.66802344      -0.32286119 </v>
   <v>      -0.57680118       1.50315088       0.29565068 </v>
   <v>       0.75657293       0.82905060       0.26531977 </v>
   <v>       0.07750626      -0.22192436       1.83623647 </v>
   <v>      -0.21118397       0.04113226       2.02019749 </v>
   <v>       3.98476526      -0.07668234       2.74525032 </v>
   <v>      -4.25904257      -0.44646859       2.57334008 </v>
   <v>       0.15136526       0.92812373      -1.71086404 </v>
   <v>      -0.01338078       1.04323658      -1.70758662 </v>
   <v>      -4.28861868      -0.24596775      -5.65764391 </v>
   <v>       4.02359985      -0.04144883      -5.66265100 </v>
   <v>      -5.36324392      -0.58853521       0.54971862 </v>
   <v>       5.79063921      -0.31549622       0.54262117 </v>
   <v>      -0.96612096      -2.85634271      -2.93380412 </v>
   <v>       0.60370341      -2.67756899      -3.15298219 </v>
   <v>       3.51796382       1.44307401      -2.07780751 </v>
   <v>      -3.07219172       1.59462447      -2.05218744 </v>
   <v>      -2.54232313       2.58927391       0.41158237 </v>
   <v>       2.44061147       2.28092893       0.67863351 </v>
   <v>      -3.86557799       5.25030781      -2.85613362 </v>
   <v>       4.84373939       6.43643978      -0.70894729 </v>
   <v>      -0.41774818      -6.03183453       1.86084122 </v>
   <v>       1.39566370      -3.78490487       4.87733148 </v>
   <v>       1.79299841      -4.27200534      -3.43115926 </v>
   <v>      -4.23046556      -3.25066862      -2.53741905 </v>
   <v>       0.12090680      -2.00324241       2.38845268 </v>
  </varray>
  <varray name="stress" >
   <v>      14.90732673       5.79388062       0.73383628 </v>
   <v>       5.79384878       1.29934212       1.75234064 </v>
   <v>       0.73668311       1.75292281     -76.17401147 </v>
  </varray>
  <energy>
   <i name="e_fr_energy">   -281.80198797 </i>
   <i name="e_wo_entrp">   -281.19004692 </i>
   <i name="e_0_energy">   -281.49601745 </i>
  </energy>
  <time name="totalsc">   45.12   45.45</time>
 </calculation>
 <calculation>
  <scstep>
   <time name="dav">    0.36    0.36</time>
   <time name="total">    1.33    1.34</time>
   <dipole>
    <v name="dipole">      0.00000000       0.00000000      -0.97541264 </v>
    <i name="Tr[quadrupol]">  -1814.96897113 </i>
    <i name="Echarged">      0.00000000 </i>
    <i name="Edipol_quadrupol">      0.00000000 </i>
    <i name="Eion">      0.00000000 </i>
   </dipole>
   <energy>
    <i name="alphaZ">    662.81348004 </i>
    <i name="ewald"> 140882.08264332 </i>
    <i name="hartreedc">-165404.13838430 </i>
    <i name="XCdc">   1217.10674814 </i>
    <i name="pawpsdc">  27395.72186550 </i>
    <i name="pawaedc"> -27845.13471148 </i>
    <i name="eentropy">     -0.53277302 </i>
    <i name="bandstr">  -4646.90909803 </i>
    <i name="atom">  27456.48054543 </i>
    <i name="e_fr_energy">   -282.50968440 </i>
    <i name="e_wo_entrp">   -281.97691138 </i>
    <i name="e_0_energy">   -282.24329789 </i>
   </energy>
  </scstep>
  <scstep>
   <time name="dav">    0.45    0.45</time>
   <time name="total">    1.40    1.41</time>
   <dipole>
    <v name="dipole">      0.00000000       0.00000000      -0.90317974 </v>
    <i name="Tr[quadrupol]">  -1816.46777220 </i>
    <i name="Echarged">      0.00000000 </i>
    <i name="Edipol_quadrupol">      0.00000000 </i>
    <i name="Eion">      0.00000000 </i>
   </dipole>
   <energy>
    <i name="e_fr_energy">   -308.74881535 </i>
    <i name="e_wo_entrp">   -308.24713525 </i>
    <i name="e_0_energy">   -308.49797530 </i>
   </energy>
  </scstep>
  <scstep>
   <time name="dav">    0.43    0.43</time>
   <time name="total">    1.39    1.39</time>
   <dipole>
    <v name="dipole">      0.00000000       0.00000000      -0.19366777 </v>
    <i name="Tr[quadrupol]">  -1817.73314866 </i>
    <i name="Echarged">      0.00000000 </i>
    <i name="Edipol_quadrupol">      0.00000000 </i>
    <i name="Eion">      0.00000000 </i>
   </dipole>
   <energy>
    <i name="e_fr_energy">   -307.73184249 </i>
    <i name="e_wo_entrp">   -307.34720582 </i>
    <i name="e_0_energy">   -307.53952416 </i>
   </energy>
  </scstep>
  <scstep>
   <time name="dav">    0.53    0.53</time>
   <time name="total">    1.48    1.49</time>
   <dipole>
    <v name="dipole">      0.00000000       0.00000000      -1.06449779 </v>
    <i name="Tr[quadrupol]">  -1818.24327829 </i>
    <i name="Echarged">      0.00000000 </i>
    <i name="Edipol_quadrupol">      0.00000000 </i>
    <i name="Eion">      0.00000000 </i>
   </dipole>
   <energy>
    <i name="e_fr_energy">   -287.31614807 </i>
    <i name="e_wo_entrp">   -286.80036765 </i>
    <i name="e_0_energy">   -287.05825786 </i>
   </energy>
  </scstep>
  <scstep>
   <time name="dav">    0.51    0.51</time>
   <time name="total">    1.46    1.47</time>
   <dipole>
    <v name="dipole">      0.00000000       0.00000000      -0.69446756 </v>
    <i name="Tr[quadrupol]">  -1818.29600063 </i>
    <i name="Echarged">      0.00000000 </i>
    <i name="Edipol_quadrupol">      0.00000000 </i>
    <i name="Eion">      0.00000000 </i>
   </dipole>
   <energy>
    <i name="e_fr_energy">   -285.74212920 </i>
    <i name="e_wo_entrp">   -285.28804285 </i>
    <i name="e_0_energy">   -285.51508603 </i>
   </energy>
  </scstep>
  <scstep>
   <time name="dav">    0.43    0.43</time>
   <time name="total">    1.39    1.40</time>
   <dipole>
    <v name="dipole">      0.00000000       0.00000000      -0.61299152 </v>
    <i name="Tr[quadrupol]">  -1819.75778761 </i>
    <i name="Echarged">      0.00000000 </i>
    <i name="Edipol_quadrupol">      0.00000000 </i>
    <i name="Eion">      0.00000000 </i>
   </dipole>
   <energy>
    <i name="e_fr_energy">   -284.26958024 </i>
    <i name="e_wo_entrp">   -283.82294359 </i>
    <i name="e_0_energy">   -284.04626191 </i>
   </energy>
  </scstep>
  <scstep>
   <time name="dav">    0.51    0.51</time>
   <time name="total">    1.46    1.47</time>
   <dipole>
    <v name="dipole">      0.00000000       0.00000000      -0.58271681 </v>
    <i name="Tr[quadrupol]">  -1819.95519485 </i>
    <i name="Echarged">      0.00000000 </i>
    <i name="Edipol_quadrupol">      0.00000000 </i>
    <i name="Eion">      0.00000000 </i>
   </dipole>
   <energy>
    <i name="e_fr_energy">   -284.01973794 </i>
    <i name="e_wo_entrp">   -283.53131200 </i>
    <i name="e_0_energy">   -283.77552497 </i>
   </energy>
  </scstep>
  <scstep>
   <time name="dav">    0.52    0.52</time>
   <time name="total">    1.47    1.48</time>
   <dipole>
    <v name="dipole">      0.00000000       0.00000000      -0.58225363 </v>
    <i name="Tr[quadrupol]">  -1820.24347790 </i>
    <i name="Echarged">      0.00000000 </i>
    <i name="Edipol_quadrupol">      0.00000000 </i>
    <i name="Eion">      0.00000000 </i>
   </dipole>
   <energy>
    <i name="e_fr_energy">   -284.00624271 </i>
    <i name="e_wo_entrp">   -283.51750182 </i>
    <i name="e_0_energy">   -283.76187226 </i>
   </energy>
  </scstep>
  <scstep>
   <time name="dav">    0.46    0.46</time>
   <time name="total">    1.41    1.42</time>
   <dipole>
    <v name="dipole">      0.00000000       0.00000000      -0.56578859 </v>
    <i name="Tr[quadrupol]">  -1820.09838161 </i>
    <i name="Echarged">      0.00000000 </i>
    <i name="Edipol_quadrupol">      0.00000000 </i>
    <i name="Eion">      0.00000000 </i>
   </dipole>
   <energy>
[...]
        <r>  0.0001  0.0000  0.0039  0.0000 </r>
        <r>  0.0002  0.0000  0.0005  0.0000 </r>
        <r>  0.0000  0.0000  0.0004  0.0000 </r>
        <r>  0.0000  0.0000  0.0002  0.0000 </r>
        <r>  0.0003  0.0005  0.0056  0.1660 </r>
        <r>  0.0005  0.0004  0.0075  0.3162 </r>
        <r>  0.0004  0.0000  0.0105  0.0373 </r>
        <r>  0.0002  0.0001  0.0125  0.0655 </r>
        <r>  0.0000  0.0000  0.0002  0.0005 </r>
        <r>  0.0000  0.0000  0.0002  0.0010 </r>
        <r>  0.0001  0.0055  0.0000  0.0000 </r>
        <r>  0.0000  0.0047  0.0000  0.0000 </r>
        <r>  0.0014  0.0025  0.0000  0.0000 </r>
        <r>  0.0002  0.0020  0.0000  0.0000 </r>
        <r>  0.0002  0.0042  0.0000  0.0000 </r>
        <r>  0.0001  0.0019  0.0000  0.0000 </r>
        <r>  0.0000  0.0008  0.0000  0.0000 </r>
        <r>  0.0002  0.0018  0.0000  0.0000 </r>
        <r>  0.0005  0.0004  0.0000  0.0000 </r>
        <r>  0.0010  0.0012  0.0000  0.0000 </r>
        <r>  0.0000  0.0005  0.0000  0.0000 </r>
        <r>  0.0000  0.0009  0.0000  0.0000 </r>
        <r>  0.0000  0.0005  0.0000  0.0000 </r>
        <r>  0.0000  0.0003  0.0000  0.0000 </r>
        <r>  0.0000  0.0000  0.0000  0.0000 </r>
        <r>  0.0000  0.0001  0.0000  0.0000 </r>
        <r>  0.0000  0.0000  0.0000  0.0000 </r>
        <r>  0.0000  0.0000  0.0000  0.0000 </r>
        <r>  0.0000  0.0000  0.0000  0.0000 </r>
        <r>  0.0000  0.0000  0.0000  0.0000 </r>
        <r>  0.0000  0.0000  0.0000  0.0000 </r>
       </set>
       <set comment="band 173">
        <r>  0.0003  0.0004  0.0163  0.0000 </r>
        <r>  0.0003  0.0003  0.0039  0.0000 </r>
        <r>  0.0005  0.0001  0.0086  0.0000 </r>
        <r>  0.0002  0.0000  0.0192  0.0000 </r>
        <r>  0.0000  0.0003  0.0024  0.0000 </r>
        <r>  0.0000  0.0004  0.0004  0.0000 </r>
        <r>  0.0007  0.0004  0.0079  0.0000 </r>
        <r>  0.0000  0.0002  0.0075  0.0000 </r>
        <r>  0.0001  0.0000  0.0011  0.3987 </r>
        <r>  0.0002  0.0000  0.0032  0.2793 </r>
        <r>  0.0001  0.0001  0.0055  0.0757 </r>
        <r>  0.0001  0.0001  0.0027  0.0779 </r>
        <r>  0.0000  0.0000  0.0007  0.0013 </r>
        <r>  0.0000  0.0000  0.0005  0.0013 </r>
        <r>  0.0003  0.0010  0.0000  0.0000 </r>
        <r>  0.0001  0.0009  0.0000  0.0000 </r>
        <r>  0.0001  0.0012  0.0000  0.0000 </r>
        <r>  0.0001  0.0016  0.0000  0.0000 </r>
        <r>  0.0000  0.0030  0.0000  0.0000 </r>
        <r>  0.0000  0.0009  0.0000  0.0000 </r>
        <r>  0.0000  0.0008  0.0000  0.0000 </r>
        <r>  0.0000  0.0031  0.0000  0.0000 </r>
        <r>  0.0005  0.0004  0.0000  0.0000 </r>
        <r>  0.0002  0.0002  0.0000  0.0000 </r>
        <r>  0.0000  0.0006  0.0000  0.0000 </r>
        <r>  0.0000  0.0003  0.0000  0.0000 </r>
        <r>  0.0001  0.0001  0.0000  0.0000 </r>
        <r>  0.0000  0.0004  0.0000  0.0000 </r>
        <r>  0.0003  0.0010  0.0000  0.0000 </r>
        <r>  0.0001  0.0007  0.0000  0.0000 </r>
        <r>  0.0001  0.0003  0.0000  0.0000 </r>
        <r>  0.0000  0.0001  0.0000  0.0000 </r>
        <r>  0.0000  0.0005  0.0000  0.0000 </r>
        <r>  0.0001  0.0008  0.0000  0.0000 </r>
        <r>  0.0000  0.0018  0.0000  0.0000 </r>
       </set>
       <set comment="band 174">
        <r>  0.0000  0.0003  0.0130  0.0000 </r>
        <r>  0.0000  0.0008  0.0184  0.0000 </r>
        <r>  0.0004  0.0002  0.0009  0.0000 </r>
        <r>  0.0001  0.0003  0.0053  0.0000 </r>
        <r>  0.0000  0.0000  0.0032  0.0000 </r>
        <r>  0.0000  0.0001  0.0009  0.0000 </r>
        <r>  0.0001  0.0001  0.0019  0.0000 </r>
        <r>  0.0000  0.0001  0.0013  0.0000 </r>
        <r>  0.0003  0.0003  0.0020  0.1047 </r>
        <r>  0.0002  0.0003  0.0041  0.2118 </r>
        <r>  0.0001  0.0000  0.0093  0.2308 </r>
        <r>  0.0003  0.0001  0.0079  0.2678 </r>
        <r>  0.0000  0.0000  0.0013  0.0020 </r>
        <r>  0.0000  0.0000  0.0016  0.0042 </r>
        <r>  0.0000  0.0022  0.0000  0.0000 </r>
        <r>  0.0000  0.0005  0.0000  0.0000 </r>
        <r>  0.0001  0.0008  0.0000  0.0000 </r>
        <r>  0.0002  0.0002  0.0000  0.0000 </r>
        <r>  0.0001  0.0009  0.0000  0.0000 </r>
        <r>  0.0000  0.0019  0.0000  0.0000 </r>
        <r>  0.0003  0.0033  0.0000  0.0000 </r>
        <r>  0.0008  0.0013  0.0000  0.0000 </r>
        <r>  0.0001  0.0005  0.0000  0.0000 </r>
        <r>  0.0001  0.0012  0.0000  0.0000 </r>
        <r>  0.0001  0.0003  0.0000  0.0000 </r>
        <r>  0.0000  0.0021  0.0000  0.0000 </r>
        <r>  0.0000  0.0005  0.0000  0.0000 </r>
        <r>  0.0001  0.0004  0.0000  0.0000 </r>
        <r>  0.0002  0.0002  0.0000  0.0000 </r>
        <r>  0.0000  0.0002  0.0000  0.0000 </r>
        <r>  0.0000  0.0000  0.0000  0.0000 </r>
        <r>  0.0000  0.0000  0.0000  0.0000 </r>
        <r>  0.0000  0.0001  0.0000  0.0000 </r>
        <r>  0.0000  0.0003  0.0000  0.0000 </r>
        <r>  0.0000  0.0003  0.0000  0.0000 </r>
       </set>
       <set comment="band 175">
        <r>  0.0001  0.0000  0.0075  0.0000 </r>
        <r>  0.0001  0.0002  0.0055  0.0000 </r>
        <r>  0.0004  0.0002  0.0024  0.0000 </r>
        <r>  0.0001  0.0003  0.0061  0.0000 </r>
        <r>  0.0000  0.0005  0.0045  0.0000 </r>
        <r>  0.0000  0.0004  0.0010  0.0000 </r>
        <r>  0.0005  0.0002  0.0040  0.0000 </r>
        <r>  0.0000  0.0001  0.0053  0.0000 </r>
        <r>  0.0000  0.0000  0.0015  0.0733 </r>
        <r>  0.0000  0.0001  0.0010  0.2837 </r>
        <r>  0.0003  0.0001  0.0052  0.1941 </r>
        <r>  0.0001  0.0002  0.0113  0.2948 </r>
        <r>  0.0000  0.0000  0.0011  0.0024 </r>
        <r>  0.0000  0.0000  0.0018  0.0040 </r>
        <r>  0.0001  0.0009  0.0000  0.0000 </r>
        <r>  0.0000  0.0011  0.0000  0.0000 </r>
        <r>  0.0000  0.0005  0.0000  0.0000 </r>
        <r>  0.0000  0.0011  0.0000  0.0000 </r>
        <r>  0.0003  0.0006  0.0000  0.0000 </r>
        <r>  0.0002  0.0020  0.0000  0.0000 </r>
        <r>  0.0000  0.0005  0.0000  0.0000 </r>
        <r>  0.0001  0.0010  0.0000  0.0000 </r>
        <r>  0.0001  0.0003  0.0000  0.0000 </r>
        <r>  0.0014  0.0004  0.0000  0.0000 </r>
        <r>  0.0000  0.0015  0.0000  0.0000 </r>
        <r>  0.0000  0.0008  0.0000  0.0000 </r>
        <r>  0.0000  0.0009  0.0000  0.0000 </r>
        <r>  0.0001  0.0003  0.0000  0.0000 </r>
        <r>  0.0003  0.0004  0.0000  0.0000 </r>
        <r>  0.0001  0.0012  0.0000  0.0000 </r>
        <r>  0.0001  0.0002  0.0000  0.0000 </r>
        <r>  0.0000  0.0001  0.0000  0.0000 </r>
        <r>  0.0000  0.0004  0.0000  0.0000 </r>
        <r>  0.0001  0.0005  0.0000  0.0000 </r>
        <r>  0.0000  0.0012  0.0000  0.0000 </r>
       </set>
       <set comment="band 176">
        <r>  0.0001  0.0003  0.0083  0.0000 </r>
        <r>  0.0003  0.0004  0.0097  0.0000 </r>
        <r>  0.0000  0.0003  0.0092  0.0000 </r>
        <r>  0.0002  0.0001  0.0072  0.0000 </r>
        <r>  0.0002  0.0002  0.0160  0.0000 </r>
        <r>  0.0004  0.0004  0.0006  0.0000 </r>
        <r>  0.0002  0.0001  0.0013  0.0000 </r>
        <r>  0.0000  0.0000  0.0015  0.0000 </r>
        <r>  0.0001  0.0001  0.0016  0.2892 </r>
        <r>  0.0001  0.0003  0.0094  0.1338 </r>
        <r>  0.0005  0.0002  0.0151  0.1771 </r>
        <r>  0.0008  0.0003  0.0129  0.1828 </r>
        <r>  0.0000  0.0000  0.0016  0.0056 </r>
        <r>  0.0000  0.0000  0.0006  0.0046 </r>
        <r>  0.0000  0.0012  0.0000  0.0000 </r>
        <r>  0.0000  0.0019  0.0000  0.0000 </r>
        <r>  0.0000  0.0014  0.0000  0.0000 </r>
        <r>  0.0002  0.0012  0.0000  0.0000 </r>
        <r>  0.0003  0.0043  0.0000  0.0000 </r>
        <r>  0.0000  0.0005  0.0000  0.0000 </r>
        <r>  0.0001  0.0013  0.0000  0.0000 </r>
        <r>  0.0001  0.0014  0.0000  0.0000 </r>
        <r>  0.0023  0.0014  0.0000  0.0000 </r>
        <r>  0.0000  0.0008  0.0000  0.0000 </r>
        <r>  0.0001  0.0011  0.0000  0.0000 </r>
        <r>  0.0001  0.0011  0.0000  0.0000 </r>
        <r>  0.0000  0.0006  0.0000  0.0000 </r>
        <r>  0.0001  0.0013  0.0000  0.0000 </r>
        <r>  0.0000  0.0003  0.0000  0.0000 </r>
        <r>  0.0000  0.0004  0.0000  0.0000 </r>
        <r>  0.0000  0.0002  0.0000  0.0000 </r>
        <r>  0.0000  0.0001  0.0000  0.0000 </r>
        <r>  0.0000  0.0002  0.0000  0.0000 </r>
        <r>  0.0000  0.0001  0.0000  0.0000 </r>
        <r>  0.0000  0.0003  0.0000  0.0000 </r>
       </set>
       <set comment="band 177">
        <r>  0.0001  0.0004  0.0217  0.0000 </r>
        <r>  0.0007  0.0020  0.0528  0.0000 </r>
        <r>  0.0011  0.0002  0.0079  0.0000 </r>
        <r>  0.0014  0.0003  0.0155  0.0000 </r>
        <r>  0.0000  0.0001  0.0011  0.0000 </r>
        <r>  0.0002  0.0001  0.0008  0.0000 </r>
        <r>  0.0000  0.0001  0.0011  0.0000 </r>
        <r>  0.0000  0.0000  0.0007  0.0000 </r>
        <r>  0.0002  0.0001  0.0046  0.1091 </r>
        <r>  0.0002  0.0000  0.0030  0.2502 </r>
        <r>  0.0001  0.0001  0.0068  0.0721 </r>
        <r>  0.0000  0.0001  0.0087  0.1480 </r>
        <r>  0.0000  0.0000  0.0006  0.0012 </r>
        <r>  0.0000  0.0000  0.0013  0.0038 </r>
        <r>  0.0000  0.0029  0.0000  0.0000 </r>
        <r>  0.0000  0.0024  0.0000  0.0000 </r>
        <r>  0.0002  0.0031  0.0000  0.0000 </r>
        <r>  0.0000  0.0037  0.0000  0.0000 </r>
        <r>  0.0005  0.0013  0.0000  0.0000 </r>
        <r>  0.0005  0.0004  0.0000  0.0000 </r>
        <r>  0.0006  0.0018  0.0000  0.0000 </r>
        <r>  0.0004  0.0008  0.0000  0.0000 </r>
        <r>  0.0002  0.0009  0.0000  0.0000 </r>
        <r>  0.0002  0.0002  0.0000  0.0000 </r>
        <r>  0.0000  0.0006  0.0000  0.0000 </r>
        <r>  0.0000  0.0009  0.0000  0.0000 </r>
        <r>  0.0000  0.0013  0.0000  0.0000 </r>
        <r>  0.0000  0.0002  0.0000  0.0000 </r>
        <r>  0.0001  0.0002  0.0000  0.0000 </r>
        <r>  0.0000  0.0001  0.0000  0.0000 </r>
        <r>  0.0000  0.0000  0.0000  0.0000 </r>
        <r>  0.0000  0.0000  0.0000  0.0000 </r>
        <r>  0.0000  0.0001  0.0000  0.0000 </r>
        <r>  0.0000  0.0002  0.0000  0.0000 </r>
        <r>  0.0000  0.0002  0.0000  0.0000 </r>
       </set>
       <set comment="band 178">
        <r>  0.0008  0.0011  0.0202  0.0000 </r>
        <r>  0.0002  0.0003  0.0232  0.0000 </r>
        <r>  0.0000  0.0002  0.0057  0.0000 </r>
        <r>  0.0002  0.0000  0.0199  0.0000 </r>
        <r>  0.0000  0.0003  0.0051  0.0000 </r>
        <r>  0.0000  0.0001  0.0005  0.0000 </r>
        <r>  0.0001  0.0000  0.0010  0.0000 </r>
        <r>  0.0000  0.0000  0.0012  0.0000 </r>
        <r>  0.0000  0.0002  0.0151  0.3543 </r>
        <r>  0.0000  0.0000  0.0074  0.2320 </r>
        <r>  0.0000  0.0000  0.0121  0.0699 </r>
        <r>  0.0001  0.0001  0.0092  0.1063 </r>
        <r>  0.0000  0.0000  0.0012  0.0032 </r>
        <r>  0.0000  0.0000  0.0006  0.0026 </r>
        <r>  0.0000  0.0051  0.0000  0.0000 </r>
        <r>  0.0001  0.0053  0.0000  0.0000 </r>
        <r>  0.0008  0.0009  0.0000  0.0000 </r>
        <r>  0.0002  0.0012  0.0000  0.0000 </r>
        <r>  0.0005  0.0001  0.0000  0.0000 </r>
        <r>  0.0001  0.0020  0.0000  0.0000 </r>
        <r>  0.0005  0.0004  0.0000  0.0000 </r>
        <r>  0.0001  0.0014  0.0000  0.0000 </r>
        <r>  0.0002  0.0010  0.0000  0.0000 </r>
        <r>  0.0017  0.0029  0.0000  0.0000 </r>
        <r>  0.0000  0.0004  0.0000  0.0000 </r>
        <r>  0.0001  0.0003  0.0000  0.0000 </r>
        <r>  0.0000  0.0000  0.0000  0.0000 </r>
        <r>  0.0000  0.0001  0.0000  0.0000 </r>
        <r>  0.0001  0.0001  0.0000  0.0000 </r>
        <r>  0.0000  0.0005  0.0000  0.0000 </r>
        <r>  0.0000  0.0000  0.0000  0.0000 </r>
        <r>  0.0000  0.0001  0.0000  0.0000 </r>
        <r>  0.0000  0.0002  0.0000  0.0000 </r>
        <r>  0.0000  0.0001  0.0000  0.0000 </r>
        <r>  0.0000  0.0002  0.0000  0.0000 </r>
       </set>
       <set comment="band 179">
        <r>  0.0001  0.0004  0.0125  0.0000 </r>
        <r>  0.0001  0.0017  0.0387  0.0000 </r>
        <r>  0.0027  0.0001  0.0058  0.0000 </r>
        <r>  0.0005  0.0001  0.0180  0.0000 </r>
        <r>  0.0001  0.0002  0.0026  0.0000 </r>
        <r>  0.0001  0.0001  0.0015  0.0000 </r>
        <r>  0.0000  0.0000  0.0010  0.0000 </r>
        <r>  0.0000  0.0000  0.0003  0.0000 </r>
        <r>  0.0000  0.0000  0.0084  0.2006 </r>
        <r>  0.0000  0.0000  0.0131  0.1191 </r>
        <r>  0.0002  0.0001  0.0074  0.1589 </r>
        <r>  0.0001  0.0001  0.0054  0.2121 </r>
        <r>  0.0000  0.0000  0.0006  0.0033 </r>
        <r>  0.0000  0.0000  0.0005  0.0038 </r>
        <r>  0.0000  0.0038  0.0000  0.0000 </r>
        <r>  0.0000  0.0062  0.0000  0.0000 </r>
        <r>  0.0000  0.0018  0.0000  0.0000 </r>
        <r>  0.0004  0.0009  0.0000  0.0000 </r>
        <r>  0.0002  0.0001  0.0000  0.0000 </r>
        <r>  0.0012  0.0004  0.0000  0.0000 </r>
        <r>  0.0006  0.0018  0.0000  0.0000 </r>
        <r>  0.0000  0.0007  0.0000  0.0000 </r>
        <r>  0.0002  0.0024  0.0000  0.0000 </r>
        <r>  0.0004  0.0027  0.0000  0.0000 </r>
        <r>  0.0000  0.0004  0.0000  0.0000 </r>
        <r>  0.0001  0.0001  0.0000  0.0000 </r>
        <r>  0.0000  0.0002  0.0000  0.0000 </r>
        <r>  0.0000  0.0004  0.0000  0.0000 </r>
        <r>  0.0000  0.0002  0.0000  0.0000 </r>
        <r>  0.0000  0.0001  0.0000  0.0000 </r>
        <r>  0.0000  0.0000  0.0000  0.0000 </r>
        <r>  0.0000  0.0001  0.0000  0.0000 </r>
        <r>  0.0000  0.0001  0.0000  0.0000 </r>
        <r>  0.0000  0.0001  0.0000  0.0000 </r>
        <r>  0.0000  0.0001  0.0000  0.0000 </r>
       </set>
       <set comment="band 180">
        <r>  0.0005  0.0002  0.0295  0.0000 </r>
        <r>  0.0000  0.0003  0.0605  0.0000 </r>
        <r>  0.0005  0.0001  0.0036  0.0000 </r>
        <r>  0.0000  0.0001  0.0031  0.0000 </r>
        <r>  0.0000  0.0001  0.0080  0.0000 </r>
        <r>  0.0004  0.0002  0.0021  0.0000 </r>
        <r>  0.0000  0.0000  0.0004  0.0000 </r>
        <r>  0.0000  0.0000  0.0002  0.0000 </r>
        <r>  0.0000  0.0001  0.0027  0.1868 </r>
        <r>  0.0002  0.0002  0.0071  0.2844 </r>
        <r>  0.0000  0.0001  0.0023  0.1213 </r>
        <r>  0.0001  0.0001  0.0035  0.1985 </r>
        <r>  0.0000  0.0000  0.0015  0.0019 </r>
        <r>  0.0000  0.0000  0.0029  0.0069 </r>
        <r>  0.0007  0.0038  0.0000  0.0000 </r>
        <r>  0.0004  0.0038  0.0000  0.0000 </r>
        <r>  0.0001  0.0040  0.0000  0.0000 </r>
        <r>  0.0000  0.0028  0.0000  0.0000 </r>
        <r>  0.0001  0.0006  0.0000  0.0000 </r>
        <r>  0.0000  0.0005  0.0000  0.0000 </r>
        <r>  0.0000  0.0004  0.0000  0.0000 </r>
        <r>  0.0001  0.0010  0.0000  0.0000 </r>
        <r>  0.0000  0.0002  0.0000  0.0000 </r>
        <r>  0.0003  0.0009  0.0000  0.0000 </r>
        <r>  0.0000  0.0000  0.0000  0.0000 </r>
        <r>  0.0000  0.0018  0.0000  0.0000 </r>
        <r>  0.0000  0.0008  0.0000  0.0000 </r>
        <r>  0.0003  0.0007  0.0000  0.0000 </r>
        <r>  0.0001  0.0002  0.0000  0.0000 </r>
        <r>  0.0000  0.0002  0.0000  0.0000 </r>
        <r>  0.0000  0.0001  0.0000  0.0000 </r>
        <r>  0.0000  0.0002  0.0000  0.0000 </r>
        <r>  0.0000  0.0001  0.0000  0.0000 </r>
        <r>  0.0000  0.0000  0.0000  0.0000 </r>
        <r>  0.0000  0.0000  0.0000  0.0000 </r>
       </set>
      </set>
     </set>
    </set>
   </array>
  </projected>
 </calculation>
 <structure name="finalpos" >
  <crystal>
   <varray name="basis" >
    <v>       5.53670000       0.00000000       0.00000000 </v>
    <v>       0.00000000       5.74730000       0.00000000 </v>
    <v>       0.00000000       0.00000000      29.09039264 </v>
   </varray>
   <i name="volume">    925.68759245 </i>
   <varray name="rec_basis" >
    <v>       0.18061300       0.00000000       0.00000000 </v>
    <v>       0.00000000       0.17399475       0.00000000 </v>
    <v>       0.00000000       0.00000000       0.03437561 </v>
   </varray>
  </crystal>
  <varray name="positions" >
   <v>       0.00000000       0.50000000       0.00343756 </v>
   <v>       0.50000000       0.00000000       0.00343756 </v>
   <v>       0.50000000       0.00000000       0.13566163 </v>
   <v>       0.00000000       0.50000000       0.13566163 </v>
   <v>       0.99899347       0.50309768       0.26904958 </v>
   <v>       0.50223799       0.00321652       0.26910072 </v>
   <v>       0.47917384       0.01297879       0.39902850 </v>
   <v>       0.01628686       0.51421361       0.40697094 </v>
   <v>       0.50780000       0.54900000       0.06954959 </v>
   <v>       0.99220000       0.04900000       0.06954959 </v>
   <v>       0.49220000       0.45100000       0.20177366 </v>
   <v>       0.00780000       0.95100000       0.20177366 </v>
   <v>       0.51524409       0.54338458       0.33555057 </v>
   <v>       0.98431059       0.04456022       0.33558967 </v>
   <v>       0.77440000       0.80660000       0.01359237 </v>
   <v>       0.72560000       0.30660000       0.01359237 </v>
   <v>       0.42550000       0.98740000       0.06954959 </v>
   <v>       0.07450000       0.48740000       0.06954959 </v>
   <v>       0.72560000       0.30660000       0.12550682 </v>
   <v>       0.77440000       0.80660000       0.12550682 </v>
   <v>       0.22560000       0.19340000       0.14581644 </v>
   <v>       0.27440000       0.69340000       0.14581644 </v>
   <v>       0.57450000       0.01260000       0.20177366 </v>
   <v>       0.92550000       0.51260000       0.20177366 </v>
   <v>       0.28111193       0.70268746       0.25855022 </v>
   <v>       0.21945360       0.20274424       0.25855156 </v>
   <v>       0.78719622       0.81680147       0.27779321 </v>
   <v>       0.71221999       0.31628856       0.27777946 </v>
   <v>       0.42827201       0.99038497       0.33349891 </v>
   <v>       0.07375118       0.49100706       0.33336011 </v>
   <v>       0.71407611       0.29078132       0.38901635 </v>
   <v>       0.78531025       0.79489339       0.38963950 </v>
   <v>       0.21813552       0.17014297       0.41027781 </v>
   <v>       0.28500122       0.67573791       0.41034616 </v>
   <v>       0.99964067       0.50036766       0.47184168 </v>
  </varray>
  <varray name="selective"  type="logical" >
   <v type="logical" >  F  F  F </v>
   <v type="logical" >  F  F  F </v>
   <v type="logical" >  F  F  F </v>
   <v type="logical" >  F  F  F </v>
   <v type="logical" >  T  T  T </v>
   <v type="logical" >  T  T  T </v>
   <v type="logical" >  T  T  T </v>
   <v type="logical" >  T  T  T </v>
   <v type="logical" >  F  F  F </v>
   <v type="logical" >  F  F  F </v>
   <v type="logical" >  F  F  F </v>
   <v type="logical" >  F  F  F </v>
   <v type="logical" >  T  T  T </v>
   <v type="logical" >  T  T  T </v>
   <v type="logical" >  F  F  F </v>
   <v type="logical" >  F  F  F </v>
   <v type="logical" >  F  F  F </v>
   <v type="logical" >  F  F  F </v>
   <v type="logical" >  F  F  F </v>
   <v type="logical" >  F  F  F </v>
   <v type="logical" >  F  F  F </v>
   <v type="logical" >  F  F  F </v>
   <v type="logical" >  F  F  F </v>
   <v type="logical" >  F  F  F </v>
   <v type="logical" >  T  T  T </v>
   <v type="logical" >  T  T  T </v>
   <v type="logical" >  T  T  T </v>
   <v type="logical" >  T  T  T </v>
   <v type="logical" >  T  T  T </v>
   <v type="logical" >  T  T  T </v>
   <v type="logical" >  T  T  T </v>
   <v type="logical" >  T  T  T </v>
   <v type="logical" >  T  T  T </v>
   <v type="logical" >  T  T  T </v>
   <v type="logical" >  T  T  T </v>
  </varray>
  <nose>
   <v>      -3.00000000       0.00000000       0.00010000       0.00010000 </v>
  </nose>
 </structure>
</modeling>
