unknown system                          
           1
     5.536700    0.000000    0.000000
     0.000000    5.747300    0.000000
     0.000000    0.000000   29.090393
   Cr   La   O 
     8     6    21
Direct configuration=     1
   0.00000000  0.50000000  0.00343756
   0.50000000  0.00000000  0.00343756
   0.50000000  0.00000000  0.13566163
   0.00000000  0.50000000  0.13566163
   0.99986929  0.49938438  0.26937126
   0.50013071  0.99938438  0.26937126
   0.48939587  0.00315503  0.40006453
   0.01060413  0.50315503  0.40006453
   0.50780000  0.54900000  0.06954959
   0.99220000  0.04900000  0.06954959
   0.49220000  0.45100000  0.20177366
   0.00780000  0.95100000  0.20177366
   0.50957389  0.54416646  0.33581737
   0.99042611  0.04416646  0.33581737
   0.77440000  0.80660000  0.01359237
   0.72560000  0.30660000  0.01359237
   0.42550000  0.98740000  0.06954959
   0.07450000  0.48740000  0.06954959
   0.72560000  0.30660000  0.12550682
   0.77440000  0.80660000  0.12550682
   0.22560000  0.19340000  0.14581644
   0.27440000  0.69340000  0.14581644
   0.57450000  0.01260000  0.20177366
   0.92550000  0.51260000  0.20177366
   0.28870533  0.69634117  0.25614362
   0.21129467  0.19634117  0.25614362
   0.79204805  0.80781865  0.27752619
   0.70795195  0.30781865  0.27752619
   0.42984338  0.00357119  0.33324504
   0.07015662  0.50357119  0.33324504
   0.71908670  0.30128723  0.38774270
   0.78091330  0.80128723  0.38774270
   0.21339458  0.19228727  0.40834875
   0.28660542  0.69228727  0.40834875
   0.00000000  0.50000000  0.47022484
Direct configuration=     2
   0.00000000  0.50000000  0.00343756
   0.50000000  0.00000000  0.00343756
   0.50000000  0.00000000  0.13566163
   0.00000000  0.50000000  0.13566163
   0.99915728  0.50166668  0.26905007
   0.50143297  0.00161604  0.26910461
   0.48347223  0.00842268  0.39947443
   0.01358696  0.50889335  0.40359493
   0.50780000  0.54900000  0.06954959
   0.99220000  0.04900000  0.06954959
   0.49220000  0.45100000  0.20177366
   0.00780000  0.95100000  0.20177366
   0.51287065  0.54386272  0.33552070
   0.98698941  0.04443691  0.33552492
   0.77440000  0.80660000  0.01359237
   0.72560000  0.30660000  0.01359237
   0.42550000  0.98740000  0.06954959
   0.07450000  0.48740000  0.06954959
   0.72560000  0.30660000  0.12550682
   0.77440000  0.80660000  0.12550682
   0.22560000  0.19340000  0.14581644
   0.27440000  0.69340000  0.14581644
   0.57450000  0.01260000  0.20177366
   0.92550000  0.51260000  0.20177366
   0.28232316  0.69911143  0.25776603
   0.21775179  0.19918818  0.25777769
   0.79043434  0.81176299  0.27761817
   0.70936958  0.31172588  0.27759707
   0.43100872  0.99294883  0.33370865
   0.06957769  0.49261830  0.33338158
   0.71637666  0.29817088  0.38837528
   0.78273667  0.79946693  0.38843579
   0.21557755  0.18138721  0.40988767
   0.28789578  0.68461182  0.40980633
   0.99974095  0.50125984  0.47084290
Direct configuration=     3
   0.00000000  0.50000000  0.00343756
   0.50000000  0.00000000  0.00343756
   0.50000000  0.00000000  0.13566163
   0.00000000  0.50000000  0.13566163
   0.99914192  0.50171590  0.26904315
   0.50146105  0.00166417  0.26909886
   0.48334448  0.00853628  0.39946171
   0.01365129  0.50901710  0.40367107
   0.50780000  0.54900000  0.06954959
   0.99220000  0.04900000  0.06954959
   0.49220000  0.45100000  0.20177366
   0.00780000  0.95100000  0.20177366
   0.51294175  0.54385617  0.33551430
   0.98691530  0.04444274  0.33551861
   0.77440000  0.80660000  0.01359237
   0.72560000  0.30660000  0.01359237
   0.42550000  0.98740000  0.06954959
   0.07450000  0.48740000  0.06954959
   0.72560000  0.30660000  0.12550682
   0.77440000  0.80660000  0.12550682
   0.22560000  0.19340000  0.14581644
   0.27440000  0.69340000  0.14581644
   0.57450000  0.01260000  0.20177366
   0.92550000  0.51260000  0.20177366
   0.28218553  0.69917117  0.25780102
   0.21789104  0.19924958  0.25781293
   0.79039954  0.81184805  0.27762016
   0.70940015  0.31181015  0.27759860
   0.43103385  0.99271975  0.33371865
   0.06956520  0.49238209  0.33338452
   0.71631821  0.29810367  0.38838892
   0.78277599  0.79942768  0.38845073
   0.21562463  0.18115214  0.40992085
   0.28792360  0.68444629  0.40983776
   0.99973536  0.50128701  0.47085623
Direct configuration=     4
   0.00000000  0.50000000  0.00343756
   0.50000000  0.00000000  0.00343756
   0.50000000  0.00000000  0.13566163
   0.00000000  0.50000000  0.13566163
   0.99906844  0.50239990  0.26904633
   0.50184564  0.00243260  0.26909978
   0.48127998  0.01073536  0.39924726
   0.01495592  0.51158941  0.40530453
   0.50780000  0.54900000  0.06954959
   0.99220000  0.04900000  0.06954959
   0.49220000  0.45100000  0.20177366
   0.00780000  0.95100000  0.20177366
   0.51408143  0.54362273  0.33553225
   0.98562595  0.04450090  0.33555379
   0.77440000  0.80660000  0.01359237
   0.72560000  0.30660000  0.01359237
   0.42550000  0.98740000  0.06954959
   0.07450000  0.48740000  0.06954959
   0.72560000  0.30660000  0.12550682
   0.77440000  0.80660000  0.12550682
   0.22560000  0.19340000  0.14581644
   0.27440000  0.69340000  0.14581644
   0.57450000  0.01260000  0.20177366
   0.92550000  0.51260000  0.20177366
   0.28165409  0.70091176  0.25817188
   0.21866452  0.20097946  0.25817856
   0.78881387  0.81430004  0.27770582
   0.71079599  0.31402700  0.27768813
   0.42966672  0.99156401  0.33360988
   0.07163730  0.49170144  0.33337244
   0.71520835  0.29447904  0.38869950
   0.78403047  0.79718317  0.38903918
   0.21686754  0.17570250  0.41009755
   0.28647700  0.68013557  0.41008942
   0.99968849  0.50083192  0.47134403
Direct configuration=     5
   0.00000000  0.50000000  0.00343756
   0.50000000  0.00000000  0.00343756
   0.50000000  0.00000000  0.13566163
   0.00000000  0.50000000  0.13566163
   0.99899347  0.50309768  0.26904958
   0.50223799  0.00321652  0.26910072
   0.47917384  0.01297879  0.39902850
   0.01628686  0.51421361  0.40697094
   0.50780000  0.54900000  0.06954959
   0.99220000  0.04900000  0.06954959
   0.49220000  0.45100000  0.20177366
   0.00780000  0.95100000  0.20177366
   0.51524409  0.54338458  0.33555057
   0.98431059  0.04456022  0.33558967
   0.77440000  0.80660000  0.01359237
   0.72560000  0.30660000  0.01359237
   0.42550000  0.98740000  0.06954959
   0.07450000  0.48740000  0.06954959
   0.72560000  0.30660000  0.12550682
   0.77440000  0.80660000  0.12550682
   0.22560000  0.19340000  0.14581644
   0.27440000  0.69340000  0.14581644
   0.57450000  0.01260000  0.20177366
   0.92550000  0.51260000  0.20177366
   0.28111193  0.70268746  0.25855022
   0.21945360  0.20274424  0.25855156
   0.78719622  0.81680147  0.27779321
   0.71221999  0.31628856  0.27777946
   0.42827201  0.99038497  0.33349891
   0.07375118  0.49100706  0.33336011
   0.71407611  0.29078132  0.38901635
   0.78531025  0.79489339  0.38963950
   0.21813552  0.17014297  0.41027781
   0.28500122  0.67573791  0.41034616
   0.99964067  0.50036766  0.47184168
