67
Lattice="11.033086113260774 5.600493888326504e-08 2.5686178914223706e-08 5.516543105132088 9.554933067924482 1.9872236184885125e-07 0.0 0.0 37.15231387033118" Properties=species:S:1:pos:R:3:tags:I:1:initial_magmoms:R:1:forces:R:3 energy=-384.5323181152344 free_energy=-384.5323181152344 stress="0.007849475581111088 -7.820707977658183e-05 -5.497213746130241e-05 -7.820707977658183e-05 0.0077339460909985275 -5.22728727456865e-05 -5.497213746130241e-05 -5.22728727456865e-05 0.0014038980179041465" pbc="T T T"
Pt      -0.00000001       0.00000000       0.00000000        0       0.00000000      -0.00387263      -0.00206661       0.14666438
Pt       2.75827155       0.00000002       0.00000007        0       0.00000000       0.00417619      -0.00128798       0.15046728
Pt       5.51654309       0.00000006       0.00000007        0       0.00000000       0.00485799      -0.00581582       0.12746415
Pt       8.27481455       0.00000002       0.00000007        0       0.00000000      -0.00414876      -0.00569443       0.12668684
Pt       1.37913578       2.38873328       0.00000009        0       0.00000000       0.00083171       0.00659175       0.14431480
Pt       4.13740732       2.38873326       0.00000010        0       0.00000000      -0.00167568       0.00163111       0.13113353
Pt       6.89567885       2.38873330       0.00000010        0       0.00000000       0.00015606      -0.00009022       0.13431287
Pt       9.65395039       2.38873333       0.00000011        0       0.00000000       0.00209361       0.00090461       0.13112921
Pt       2.75827157       4.77746655       0.00000018        0       0.00000000      -0.00197890       0.00964578       0.12215737
Pt       5.51654311       4.77746655       0.00000018        0       0.00000000      -0.00108980       0.00228482       0.13370287
Pt       8.27481459       4.77746656       0.00000016        0       0.00000000       0.00141369       0.00227471       0.13441184
Pt      11.03308612       4.77746666       0.00000025        0       0.00000000       0.00347155       0.00906860       0.12514025
Pt       4.13740734       7.16619989       0.00000032        0       0.00000000      -0.00826904      -0.00023642       0.12188554
Pt       6.89567883       7.16619981       0.00000025        0       0.00000000      -0.00037905       0.00275880       0.12995133
Pt       9.65395036       7.16619988       0.00000022        0       0.00000000       0.00901200       0.00080136       0.12550855
Pt      12.41222192       7.16619985       0.00000023        0       0.00000000       0.00149891      -0.00057044       0.10438076
Pt       1.37913581       0.79624445       2.38855938        1       0.00000000       0.00614368      -0.01584965       0.09195387
Pt       4.13740731       0.79624445       2.38855951        1       0.00000000      -0.06700848      -0.02942501      -0.07241441
Pt       6.89567888       0.79624443       2.38855941        1       0.00000000      -0.00486718      -0.00113666      -0.17736451
Pt       9.65395033       0.79624446       2.38855954        1       0.00000000       0.05796562      -0.02174880      -0.09488619
Pt       2.75827161       3.18497767       2.38855947        1       0.00000000      -0.03365425      -0.05321207      -0.11591062
Pt       5.51654314       3.18497767       2.38855952        1       0.00000000      -0.00644484      -0.01332628      -0.18136775
Pt       8.27481457       3.18497770       2.38855940        1       0.00000000       0.00396410      -0.01083669      -0.18128374
Pt      11.03308614       3.18497759       2.38855939        1       0.00000000       0.03111582      -0.04862881      -0.11786750
Pt       4.13740736       5.57371086       2.38855937        1       0.00000000       0.00447016      -0.01046550      -0.18059094
Pt       6.89567888       5.57371105       2.38855956        1       0.00000000       0.00099140      -0.00133832      -0.18914159
Pt       9.65395045       5.57371094       2.38855956        1       0.00000000      -0.00819578      -0.00685101      -0.17798428
Pt      12.41222194       5.57371108       2.38855958        1       0.00000000      -0.00563720      -0.03379036      -0.15356493
Pt       5.51654310       7.96244423       2.38855960        1       0.00000000       0.01871103       0.05674642      -0.09669811
Pt       8.27481475       7.96244428       2.38855962        1       0.00000000      -0.01379209       0.06415039      -0.07519598
Pt      11.03308616       7.96244430       2.38855961        1       0.00000000      -0.03758526       0.01607310      -0.14335969
Pt      13.79135772       7.96244428       2.38855965        1       0.00000000       0.02605991       0.01595807      -0.14704554
Pt       0.00831177       1.57530386       4.77578148        2       0.00000000      -0.00123136       0.00009888      -0.00058699
Pt       2.74652622       1.57310006       4.78306092        2       0.00000000       0.00061033       0.00021907      -0.00130741
Pt       5.51131433       1.58310653       4.72302759        2       0.00000000      -0.00037141       0.00069577      -0.00056456
Pt       8.27499078       1.58322048       4.72192567        2       0.00000000       0.00032788       0.00057336       0.00021467
Pt       1.37709458       3.95930070       4.74483725        2       0.00000000      -0.00041344       0.00228608      -0.00258779
Pt       4.13354634       3.96848872       4.72110299        2       0.00000000       0.00071815       0.00275428      -0.00162579
Pt       6.89363869       3.97167943       4.72645898        2       0.00000000      -0.00034870      -0.00057254      -0.00016971
Pt       9.65330072       3.96869896       4.72186431        2       0.00000000      -0.00143893       0.00202168      -0.00074475
Pt       2.75426528       6.36279484       4.71631690        2       0.00000000      -0.00088708       0.00263202      -0.00042996
Pt       5.51557101       6.36285019       4.71911858        2       0.00000000      -0.00008933       0.00101275       0.00082646
Pt       8.27150979       6.36298019       4.72099397        2       0.00000000      -0.00102512       0.00057659       0.00076419
Pt      11.02901415       6.36428536       4.71838719        2       0.00000000      -0.00014454       0.00208061      -0.00043069
Pt       4.14908413       8.75681641       4.75258183        2       0.00000000       0.00029102       0.00231311       0.00056304
Pt       6.89541543       8.76280784       4.78623576        2       0.00000000      -0.00058374       0.00035091      -0.00041409
Pt       9.63314250       8.75929289       4.76258073        2       0.00000000      -0.00071272       0.00189111      -0.00102909
Pt      12.40689486       8.74959574       4.71877246        2       0.00000000      -0.00009871       0.00258060      -0.00056776
Pt      -0.11416437      -0.08845732       7.20012452        3       0.00000000      -0.00155765       0.00215885      -0.00047397
Pt       2.84862441      -0.07325699       7.24757517        3       0.00000000      -0.00051653       0.00372297      -0.00357262
Pt       5.53433219      -0.01856441       7.08104097        3       0.00000000      -0.00213131       0.00281091      -0.00118196
Pt       8.23865596      -0.02019081       7.07780066        3       0.00000000       0.00163675       0.00240259       0.00008655
Pt       1.37915781       2.50621487       7.16164494        3       0.00000000       0.00056615       0.01141590      -0.00085672
Pt       4.14834710       2.38324287       7.07361211        3       0.00000000       0.00139429       0.00402963      -0.00189513
Pt       6.89261403       2.37583247       7.08490284        3       0.00000000      -0.00008203       0.00263026      -0.00034773
Pt       9.64282069       2.37466796       7.07200819        3       0.00000000      -0.00041096       0.00204103       0.00066808
Pt       2.76654436       4.79052640       7.07710700        3       0.00000000       0.00182672       0.00813530      -0.00003576
Pt       5.51748256       4.75613874       7.08282625        3       0.00000000      -0.00102067       0.00297534      -0.00012305
Pt       8.26840825       4.75592082       7.08309566        3       0.00000000       0.00043722       0.00237645       0.00006726
Pt      11.01569499       4.79012927       7.07783879        3       0.00000000      -0.00301548       0.00749649       0.00036028
Pt       4.11302114       7.12348656       7.07518016        3       0.00000000      -0.00167158       0.00122976      -0.00018081
Pt       6.88992337       7.12507460       7.06414876        3       0.00000000      -0.00106414       0.00219574       0.00075462
Pt       9.66331017       7.13004270       7.07995796        3       0.00000000       0.00012240       0.00056200      -0.00122833
Pt      12.40481995       7.15065579       7.08458693        3       0.00000000      -0.00131214       0.00438158      -0.00010946
O        1.34945830       0.78229523       8.27203009        0       0.00000000       0.00053097       0.01074815      -0.01044595
O        1.57330307       0.16161691      10.40284644        0       0.00000000       0.04741359       0.00774840      -0.01287383
H        2.43032876      -0.20077022      10.08878746        0       0.00000000      -0.01408243      -0.02709433      -0.03711072
