66
Lattice="11.033086113260774 5.600493888326504e-08 2.5686178914223706e-08 5.516543105132088 9.554933067924482 1.9872236184885125e-07 0.0 0.0 37.15231387033118" Properties=species:S:1:pos:R:3:tags:I:1:initial_magmoms:R:1:forces:R:3 energy=-377.4966125488281 free_energy=-377.4966125488281 stress="0.009068835063662588 2.5871315243544425e-10 1.500159875470534e-09 2.5871315243544425e-10 0.009068832831524983 -5.348088232993239e-10 1.500159875470534e-09 -5.348088232993239e-10 0.0008913744840726904" pbc="T T T"
Pt      -0.00000001       0.00000000       0.00000000        0       0.00000000      -0.00000141      -0.00000074       0.13393062
Pt       2.75827155       0.00000002       0.00000007        0       0.00000000      -0.00006415      -0.00069661       0.13027272
Pt       5.51654309       0.00000006       0.00000007        0       0.00000000       0.00000281       0.00015444       0.13328451
Pt       8.27481455       0.00000002       0.00000007        0       0.00000000       0.00006541      -0.00069711       0.13027376
Pt       1.37913578       2.38873328       0.00000009        0       0.00000000      -0.00063303       0.00029197       0.13027659
Pt       4.13740732       2.38873326       0.00000010        0       0.00000000      -0.00000986      -0.00000732       0.12935701
Pt       6.89567885       2.38873330       0.00000010        0       0.00000000       0.00000947      -0.00000426       0.12936002
Pt       9.65395039       2.38873333       0.00000011        0       0.00000000       0.00062917       0.00029033       0.13027492
Pt       2.75827157       4.77746655       0.00000018        0       0.00000000       0.00013583      -0.00007727       0.13328093
Pt       5.51654311       4.77746655       0.00000018        0       0.00000000       0.00000402       0.00001276       0.12935591
Pt       8.27481459       4.77746656       0.00000016        0       0.00000000      -0.00013295      -0.00007980       0.13328415
Pt      11.03308612       4.77746666       0.00000025        0       0.00000000       0.00000116       0.00177500       0.12825337
Pt       4.13740734       7.16619989       0.00000032        0       0.00000000      -0.00056757       0.00040123       0.13027823
Pt       6.89567883       7.16619981       0.00000025        0       0.00000000       0.00056758       0.00040678       0.13027418
Pt       9.65395036       7.16619988       0.00000022        0       0.00000000       0.00153575      -0.00088651       0.12824863
Pt      12.41222192       7.16619985       0.00000023        0       0.00000000      -0.00153853      -0.00088520       0.12825823
Pt       1.37913581       0.79624445       2.38855938        1       0.00000000      -0.00797937      -0.00460277      -0.14937146
Pt       4.13740731       0.79624445       2.38855951        1       0.00000000       0.00215371      -0.00246510      -0.16390863
Pt       6.89567888       0.79624443       2.38855941        1       0.00000000      -0.00214905      -0.00248476      -0.16388838
Pt       9.65395033       0.79624446       2.38855954        1       0.00000000       0.00797605      -0.00461002      -0.14937860
Pt       2.75827161       3.18497767       2.38855947        1       0.00000000      -0.00109854       0.00309451      -0.16391562
Pt       5.51654314       3.18497767       2.38855952        1       0.00000000       0.00002380      -0.00001408      -0.14533131
Pt       8.27481457       3.18497770       2.38855940        1       0.00000000       0.00108953       0.00310004      -0.16390149
Pt      11.03308614       3.18497759       2.38855939        1       0.00000000       0.00000406      -0.01012880      -0.14657338
Pt       4.13740736       5.57371086       2.38855937        1       0.00000000      -0.00323822      -0.00059538      -0.16391279
Pt       6.89567888       5.57371105       2.38855956        1       0.00000000       0.00321530      -0.00062768      -0.16391066
Pt       9.65395045       5.57371094       2.38855956        1       0.00000000      -0.00131764      -0.00077040      -0.15450945
Pt      12.41222194       5.57371108       2.38855958        1       0.00000000       0.00131566      -0.00075231      -0.15449065
Pt       5.51654310       7.96244423       2.38855960        1       0.00000000      -0.00000064       0.00920712      -0.14937964
Pt       8.27481475       7.96244428       2.38855962        1       0.00000000      -0.00878961       0.00507287      -0.14660980
Pt      11.03308616       7.96244430       2.38855961        1       0.00000000       0.00001893       0.00151647      -0.15452987
Pt      13.79135772       7.96244428       2.38855965        1       0.00000000       0.00877505       0.00506004      -0.14656985
Pt       0.00000014       1.58750534       4.73797149        2       0.00000000       0.00003032      -0.00206405       0.02757859
Pt       2.76439822       1.59602655       4.72515477        2       0.00000000      -0.01156223      -0.00667544       0.01842639
Pt       5.51654575       1.59158191       4.72973716        2       0.00000000       0.00001439       0.01255248       0.00182122
Pt       8.26869076       1.59602369       4.72515473        2       0.00000000       0.01154020      -0.00667901       0.01842162
Pt       1.37851973       3.98200238       4.72827689        2       0.00000000      -0.00509772      -0.01463985       0.00991407
Pt       4.13662365       3.98167294       4.72971916        2       0.00000000       0.01088542      -0.00623241       0.00180012
Pt       6.89647611       3.98167122       4.72973412        2       0.00000000      -0.01096176      -0.00627777       0.00193688
Pt       9.65457077       3.98199878       4.72827686        2       0.00000000       0.00506687      -0.01457414       0.00982372
Pt       2.75729056       6.37009772       4.72827909        2       0.00000000       0.01011436       0.01174212       0.00997679
Pt       5.51654202       6.36287843       4.72515494        2       0.00000000       0.00000528       0.01331899       0.01843446
Pt       8.27578425       6.37010451       4.72826674        2       0.00000000      -0.01004432       0.01168848       0.00999863
Pt      11.03307664       6.36996100       4.72800025        2       0.00000000       0.00006135      -0.00003368       0.00441991
Pt       4.14172474       8.76117822       4.73797219        2       0.00000000       0.00176253       0.00103863       0.02757064
Pt       6.89135939       8.76118120       4.73797186        2       0.00000000      -0.00177176       0.00105091       0.02758459
Pt       9.65431371       8.75776996       4.72826432        2       0.00000000      -0.01522792       0.00289993       0.01000689
Pt      12.41185860       8.75776548       4.72827540        2       0.00000000       0.01517909       0.00289177       0.00976169
Pt      -0.00000107       0.00000020       7.06625507        3       0.00000000       0.00000566       0.00000676       0.00120432
Pt       2.76612071       0.00198755       7.07760432        3       0.00000000      -0.00703392      -0.00325638       0.00733522
Pt       5.51654275       0.00021829       7.08437356        3       0.00000000      -0.00001141       0.00011017       0.01202825
Pt       8.26696441       0.00198626       7.07760391        3       0.00000000       0.00705343      -0.00324657       0.00735679
Pt       1.38478049       2.39453795       7.07760501        3       0.00000000      -0.00633159      -0.00447433       0.00734371
Pt       4.13845336       2.38933908       7.08586945        3       0.00000000       0.00219983       0.00127125       0.00712693
Pt       6.89463268       2.38933646       7.08587394        3       0.00000000      -0.00220445       0.00127221       0.00712276
Pt       9.64830448       2.39454113       7.07759893        3       0.00000000       0.00633517      -0.00449891       0.00738540
Pt       2.75846276       4.77735419       7.08437467        3       0.00000000       0.00010304      -0.00004588       0.01201940
Pt       5.51654463       4.77625753       7.08587533        3       0.00000000      -0.00001612      -0.00254505       0.00707850
Pt       8.27462232       4.77735511       7.08437625        3       0.00000000      -0.00007450      -0.00001679       0.01201916
Pt      11.03308600       4.77894929       7.08353026        3       0.00000000       0.00000644      -0.00505826       0.01015976
Pt       4.13520383       7.15840794       7.07760126        3       0.00000000       0.00070445       0.00771423       0.00737453
Pt       6.89788284       7.15840917       7.07760601        3       0.00000000      -0.00069978       0.00771761       0.00734201
Pt       9.65523392       7.16546050       7.08353033        3       0.00000000      -0.00441911       0.00252757       0.01013333
Pt      12.41093856       7.16546030       7.08353210        3       0.00000000       0.00438714       0.00251756       0.01014742
H        0.00000049       0.00000057       9.27929326        0       0.00000000      -0.00000098       0.00000022       0.00848016
H        0.00000012       0.00000002      10.03638533        0       0.00000000      -0.00000006       0.00000003       0.04278404
