<?xml version="1.0" encoding="ISO-8859-1"?>
<modeling>
 <generator>
  <i name="program" type="string">vasp </i>
  <i name="version" type="string">6.4.3  </i>
  <i name="subversion" type="string">19Mar24 (build Jul 01 2024 12:12:31) complex                          parallel </i>
  <i name="platform" type="string">LinuxIFC </i>
  <i name="date" type="string">2024 12 05 </i>
  <i name="time" type="string">16:11:43 </i>
 </generator>
 <incar>
  <i type="string" name="SYSTEM">BaZrO3</i>
  <i type="int" name="ISTART">     0</i>
  <i type="string" name="PREC">Accurate</i>
  <i type="logical" name="ADDGRID"> T  </i>
  <i type="int" name="ISPIN">     1</i>
  <i type="int" name="ICHARG">     2</i>
  <i type="int" name="NELM">   100</i>
  <i type="int" name="NELMIN">     5</i>
  <i type="int" name="IBRION">     2</i>
  <i name="EDIFF">      0.00000100</i>
  <i name="EDIFFG">     -0.01000000</i>
  <i type="int" name="NSW">   100</i>
  <i type="int" name="ISIF">     3</i>
  <i name="ENCUT">    520.00000000</i>
  <i type="int" name="NEDOS">  2000</i>
  <i type="string" name="LREAL">Auto</i>
  <i type="int" name="ISMEAR">     0</i>
  <i name="SIGMA">      0.05000000</i>
  <i type="logical" name="LWAVE"> F  </i>
  <i type="logical" name="LCHARG"> T  </i>
  <i type="int" name="LORBIT">    11</i>
  <i type="logical" name="LASPH"> T  </i>
  <i type="string" name="GGA">PE</i>
 </incar>
 <primitive_cell>
  <structure name="primitive_cell" >
   <crystal>
    <varray name="basis" >
     <v>       4.19200000       0.00000000       0.00000000 </v>
     <v>       0.00000000       4.19200000       0.00000000 </v>
     <v>       0.00000000       0.00000000       4.19200000 </v>
    </varray>
    <i name="volume">     73.66544589 </i>
    <varray name="rec_basis" >
     <v>       0.23854962       0.00000000       0.00000000 </v>
     <v>       0.00000000       0.23854962       0.00000000 </v>
     <v>       0.00000000       0.00000000       0.23854962 </v>
    </varray>
   </crystal>
   <varray name="positions" >
    <v>       0.00000000       0.00000000       0.00000000 </v>
    <v>       0.50000000       0.50000000       0.50000000 </v>
    <v>       0.50000000       0.50000000       0.00000000 </v>
    <v>       0.50000000       0.00000000       0.50000000 </v>
    <v>       0.00000000       0.50000000       0.50000000 </v>
   </varray>
  </structure>
  <varray name="primitive_index" >
   <v type="int" >        1 </v>
   <v type="int" >        2 </v>
   <v type="int" >        3 </v>
   <v type="int" >        4 </v>
   <v type="int" >        5 </v>
  </varray>
 </primitive_cell>
 <kpoints>
  <generation param="Monkhorst-Pack">
   <v type="int" name="divisions">       6        6        6 </v>
   <v name="usershift">      0.00000000       0.00000000       0.00000000 </v>
   <v name="genvec1">      0.16666667       0.00000000       0.00000000 </v>
   <v name="genvec2">      0.00000000       0.16666667       0.00000000 </v>
   <v name="genvec3">      0.00000000       0.00000000       0.16666667 </v>
   <v name="shift">      0.50000000       0.50000000       0.50000000 </v>
  </generation>
  <varray name="kpointlist" >
   <v>       0.08333333       0.08333333       0.08333333 </v>
   <v>       0.25000000       0.08333333       0.08333333 </v>
   <v>       0.41666667       0.08333333       0.08333333 </v>
   <v>       0.25000000       0.25000000       0.08333333 </v>
   <v>       0.41666667       0.25000000       0.08333333 </v>
   <v>       0.41666667       0.41666667       0.08333333 </v>
   <v>       0.25000000       0.25000000       0.25000000 </v>
   <v>       0.41666667       0.25000000       0.25000000 </v>
   <v>       0.41666667       0.41666667       0.25000000 </v>
   <v>       0.41666667       0.41666667       0.41666667 </v>
  </varray>
  <varray name="weights" >
   <v>       0.03703704 </v>
   <v>       0.11111111 </v>
   <v>       0.11111111 </v>
   <v>       0.11111111 </v>
   <v>       0.22222222 </v>
   <v>       0.11111111 </v>
   <v>       0.03703704 </v>
   <v>       0.11111111 </v>
   <v>       0.11111111 </v>
   <v>       0.03703704 </v>
  </varray>
 </kpoints>
 <parameters>
  <separator name="general" >
   <i type="string" name="SYSTEM">BaZrO3</i>
   <i type="logical" name="LCOMPAT"> F  </i>
  </separator>
  <separator name="electronic" >
   <i type="string" name="PREC">accura</i>
   <i name="ENMAX">    520.00000000</i>
   <i name="ENAUG">    605.39200000</i>
   <i name="EDIFF">      0.00000100</i>
   <i type="int" name="IALGO">    38</i>
   <i type="int" name="IWAVPR">    11</i>
   <i type="int" name="NBANDS">    24</i>
   <i type="int" name="NBANDSLOW">    -1</i>
   <i type="int" name="NBANDSHIGH">    -1</i>
   <i name="NELECT">     40.00000000</i>
   <i type="int" name="TURBO">     0</i>
   <i type="int" name="IRESTART">     0</i>
   <i type="int" name="NREBOOT">     0</i>
   <i type="int" name="NMIN">     0</i>
   <i name="EREF">      0.00000000</i>
   <separator name="electronic smearing" >
    <i type="int" name="ISMEAR">     0</i>
    <i name="SIGMA">      0.05000000</i>
    <i name="KSPACING">      0.50000000</i>
    <i type="logical" name="KGAMMA"> T  </i>
    <i type="logical" name="KBLOWUP"> T  </i>
   </separator>
   <separator name="electronic projectors" >
    <i type="logical" name="LREAL"> T  </i>
    <v name="ROPT">     -0.00025000     -0.00025000     -0.00025000</v>
    <i type="int" name="LMAXPAW">  -100</i>
    <i type="int" name="LMAXMIX">     2</i>
    <i type="logical" name="NLSPLINE"> F  </i>
   </separator>
   <separator name="electronic startup" >
    <i type="int" name="ISTART">     0</i>
    <i type="int" name="ICHARG">     2</i>
    <i type="int" name="INIWAV">     1</i>
   </separator>
   <separator name="electronic spin" >
    <i type="int" name="ISPIN">     1</i>
    <i type="logical" name="LNONCOLLINEAR"> F  </i>
    <v name="MAGMOM">      1.00000000      1.00000000      1.00000000      1.00000000      1.00000000</v>
    <i name="NUPDOWN">     -1.00000000</i>
    <i type="logical" name="LSORBIT"> F  </i>
    <v name="SAXIS">      0.00000000      0.00000000      1.00000000</v>
    <i type="logical" name="LSPIRAL"> F  </i>
    <v name="QSPIRAL">      0.00000000      0.00000000      0.00000000</v>
    <i type="logical" name="LZEROZ"> F  </i>
   </separator>
   <separator name="electronic exchange-correlation" >
    <i type="logical" name="LASPH"> T  </i>
   </separator>
   <separator name="electronic convergence" >
    <i type="int" name="NELM">   100</i>
    <i type="int" name="NELMDL">    -5</i>
    <i type="int" name="NELMIN">     5</i>
    <i name="ENINI">    520.00000000</i>
    <separator name="electronic convergence detail" >
     <i type="logical" name="LDIAG"> T  </i>
     <i type="logical" name="LSUBROT"> F  </i>
     <i name="WEIMIN">      0.00100000</i>
     <i name="EBREAK">      0.00000001</i>
     <i name="DEPER">      0.30000000</i>
     <i type="int" name="NRMM">     4</i>
     <i name="TIME">      0.40000000</i>
    </separator>
   </separator>
   <separator name="electronic mixer" >
    <i name="AMIX">      0.40000000</i>
    <i name="BMIX">      1.00000000</i>
    <i name="AMIN">      0.10000000</i>
    <i name="AMIX_MAG">      1.60000000</i>
    <i name="BMIX_MAG">      1.00000000</i>
    <separator name="electronic mixer details" >
     <i type="int" name="IMIX">     4</i>
     <i type="logical" name="MIXFIRST"> F  </i>
     <i type="int" name="MAXMIX">   -45</i>
     <i name="WC">    100.00000000</i>
     <i type="int" name="INIMIX">     1</i>
     <i type="int" name="MIXPRE">     1</i>
     <i type="int" name="MREMOVE">     5</i>
    </separator>
   </separator>
   <separator name="electronic dipolcorrection" >
    <i type="logical" name="LDIPOL"> F  </i>
    <i type="logical" name="LMONO"> F  </i>
    <i type="int" name="IDIPOL">     0</i>
    <i name="EPSILON">      1.00000000</i>
    <v name="DIPOL">   -100.00000000   -100.00000000   -100.00000000</v>
    <i name="EFIELD">      0.00000000</i>
    <i type="logical" name="LVACPOTAV"> F  </i>
   </separator>
  </separator>
  <separator name="grids" >
   <i type="int" name="NGX">    32</i>
   <i type="int" name="NGY">    32</i>
   <i type="int" name="NGZ">    32</i>
   <i type="int" name="NGXF">    64</i>
   <i type="int" name="NGYF">    64</i>
   <i type="int" name="NGZF">    64</i>
   <i type="logical" name="ADDGRID"> T  </i>
  </separator>
  <separator name="ionic" >
   <i type="int" name="NSW">   100</i>
   <i type="int" name="IBRION">     2</i>
   <i type="int" name="MDALGO">     0</i>
   <i type="int" name="ISIF">     3</i>
   <i name="PSTRESS">      0.00000000</i>
   <i name="EDIFFG">     -0.01000000</i>
   <i type="int" name="NFREE">     1</i>
   <i name="POTIM">      0.50000000</i>
   <i name="SMASS">     -3.00000000</i>
   <i name="SCALEE">      1.00000000</i>
  </separator>
  <separator name="ionic md" >
   <i name="TEBEG">      0.00010000</i>
   <i name="TEEND">      0.00010000</i>
   <i type="int" name="NBLOCK">     1</i>
   <i type="int" name="KBLOCK">   100</i>
   <i type="int" name="NPACO">   256</i>
   <i name="APACO">     10.00000000</i>
  </separator>
  <separator name="symmetry" >
   <i type="int" name="ISYM">     2</i>
   <i name="SYMPREC">      0.00001000</i>
  </separator>
  <separator name="dos" >
   <i type="int" name="LORBIT">    11</i>
   <v name="RWIGS">     -1.00000000     -1.00000000     -1.00000000</v>
   <i type="int" name="NEDOS">  2000</i>
   <i name="EMIN">     10.00000000</i>
   <i name="EMAX">    -10.00000000</i>
   <i name="EFERMI">      0.00000000</i>
  </separator>
  <separator name="writing" >
   <i type="int" name="NWRITE">     2</i>
   <i type="logical" name="LWAVE"> F  </i>
   <i type="logical" name="LDOWNSAMPLE"> F  </i>
   <i type="logical" name="LCHARG"> T  </i>
   <i type="logical" name="LPARD"> F  </i>
   <i type="logical" name="LVTOT"> F  </i>
   <i type="logical" name="LVHAR"> F  </i>
   <i type="logical" name="LELF"> F  </i>
   <i type="logical" name="LOPTICS"> F  </i>
   <v name="STM">      0.00000000      0.00000000      0.00000000      0.00000000      0.00000000      0.00000000      0.00000000</v>
  </separator>
  <separator name="performance" >
   <i type="int" name="NPAR">     4</i>
   <i type="int" name="NSIM">     4</i>
   <i type="int" name="NBLK">    -1</i>
   <i type="logical" name="LPLANE"> T  </i>
   <i type="logical" name="LSCALAPACK"> T  </i>
   <i type="logical" name="LSCAAWARE"> F  </i>
   <i type="logical" name="LSCALU"> F  </i>
   <i type="logical" name="LASYNC"> F  </i>
   <i type="logical" name="LORBITALREAL"> F  </i>
  </separator>
  <separator name="miscellaneous" >
   <i type="int" name="IDIOT">     3</i>
   <i type="int" name="PHON_NSTRUCT">    -1</i>
   <i type="logical" name="LMUSIC"> F  </i>
   <v name="POMASS">    137.32700000     91.22400000     16.00000000</v>
   <v name="DARWINR">      0.00000000      0.00000000      0.00000000</v>
   <v name="DARWINV">      1.00000000      1.00000000      1.00000000</v>
   <i type="logical" name="LCORR"> T  </i>
  </separator>
  <i type="logical" name="GGA_COMPAT"> T  </i>
  <i type="logical" name="LBERRY"> F  </i>
  <i type="int" name="ICORELEVEL">     0</i>
  <i type="logical" name="LDAU"> F  </i>
  <i type="int" name="I_CONSTRAINED_M">     0</i>
  <separator name="electronic exchange-correlation" >
   <i type="string" name="GGA    ">PE</i>
   <i type="string" name="XC_C">1</i>
   <i type="int" name="VOSKOWN">     0</i>
   <i type="logical" name="LHFCALC"> F  </i>
   <i type="string" name="PRECFOCK"></i>
   <i type="logical" name="LSYMGRAD"> F  </i>
   <i type="logical" name="LHFONE"> F  </i>
   <i type="logical" name="LRHFCALC"> F  </i>
   <i type="logical" name="LTHOMAS"> F  </i>
   <i type="logical" name="LMODELHF"> F  </i>
   <i type="logical" name="LFOCKACE"> F  </i>
   <i name="ENCUT4O">     -1.00000000</i>
   <i type="int" name="EXXOEP">     0</i>
   <i type="int" name="FOURORBIT">     0</i>
   <i name="AEXX">      0.00000000</i>
   <i name="HFALPHA">      0.00000000</i>
   <i name="MCALPHA">      0.00000000</i>
   <i name="ALDAX">      1.00000000</i>
   <i name="AGGAX">      1.00000000</i>
   <i name="AMGGAX">      1.00000000</i>
   <i name="ALDAC">      1.00000000</i>
   <i name="AGGAC">      1.00000000</i>
   <i name="AMGGAC">      1.00000000</i>
   <i type="int" name="NKREDX">     1</i>
   <i type="int" name="NKREDY">     1</i>
   <i type="int" name="NKREDZ">     1</i>
   <i type="logical" name="SHIFTRED"> F  </i>
   <i type="logical" name="ODDONLY"> F  </i>
   <i type="logical" name="EVENONLY"> F  </i>
   <i type="int" name="LMAXFOCK">     0</i>
   <i type="int" name="NMAXFOCKAE">     0</i>
   <i type="logical" name="LFOCKAEDFT"> F  </i>
   <i name="HFSCREEN">      0.00000000</i>
   <i name="HFSCREENC">      0.00000000</i>
   <i type="int" name="NBANDSGWLOW">     0</i>
  </separator>
  <separator name="vdW DFT" >
   <i type="logical" name="LUSE_VDW"> F  </i>
   <i type="int" name="IVDW_NL">    -1</i>
   <i type="logical" name="LSPIN_VDW"> F  </i>
   <i name="ZAB_VDW">     -0.84910000</i>
   <i name="GAMMA_VDW">      1.39626340</i>
   <i name="ALPHA_VDW">      0.00000000</i>
   <i name="PARAM1">      0.12340000</i>
   <i name="PARAM2">      1.00000000</i>
   <i name="BPARAM">      6.30000000</i>
   <i name="CPARAM">      0.00930000</i>
  </separator>
  <separator name="model GW" >
   <i type="int" name="MODEL_GW">     0</i>
   <i name="MODEL_EPS0">      8.83985351</i>
   <i name="MODEL_ALPHA">      1.00000000</i>
  </separator>
  <separator name="linear response parameters" >
   <i type="logical" name="LEPSILON"> F  </i>
   <i type="logical" name="LRPA"> F  </i>
   <i type="logical" name="LNABLA"> F  </i>
   <i type="logical" name="LVEL"> F  </i>
   <i name="CSHIFT">      0.10000000</i>
   <i name="OMEGAMAX">     -1.00000000</i>
   <i name="DEG_THRESHOLD">      0.00200000</i>
   <i name="RTIME">     -0.10000000</i>
   <i name="WPLASMAI">      0.00000000</i>
   <v name="DFIELD">      0.00000000      0.00000000      0.00000000</v>
   <v name="WPLASMA">      0.00000000      0.00000000      0.00000000      0.00000000      0.00000000      0.00000000      0.00000000      0.00000000      0.00000000</v>
  </separator>
  <separator name="orbital magnetization" >
   <i type="logical" name="NUCIND"> F  </i>
   <v name="MAGPOS">      0.00000000      0.00000000      0.00000000</v>
   <i type="logical" name="LNICSALL"> T  </i>
   <i type="logical" name="ORBITALMAG"> F  </i>
   <i type="logical" name="LMAGBLOCH"> F  </i>
   <i type="logical" name="LCHIMAG"> F  </i>
   <i type="logical" name="LGAUGE"> T  </i>
   <i type="int" name="MAGATOM">     0</i>
   <v name="MAGDIPOL">      0.00000000      0.00000000      0.00000000</v>
   <v name="AVECCONST">      0.00000000      0.00000000      0.00000000</v>
  </separator>
  <separator name="response functions" >
   <i type="logical" name="LALL_IN_ONE"> F  </i>
   <i type="int" name="IALL_IN_ONE">    -1</i>
   <i type="int" name="NBANDS_WAVE">    -1</i>
   <i type="logical" name="LFINITE_TEMPERATURE"> F  </i>
   <i type="logical" name="LADDER"> F  </i>
   <i type="logical" name="LRPAFORCE"> F  </i>
   <i type="logical" name="LFXC"> F  </i>
   <i type="logical" name="LHARTREE"> T  </i>
   <i type="int" name="IBSE">     0</i>
   <v type="int" name="KPOINT">    -1     0     0     0</v>
   <i type="logical" name="LTCTC"> F  </i>
   <i type="logical" name="LTCTE"> F  </i>
   <i type="logical" name="LTETE"> F  </i>
   <i type="logical" name="LTRIPLET"> F  </i>
   <i type="logical" name="LFXCEPS"> F  </i>
   <i type="logical" name="LFXHEG"> F  </i>
   <i type="int" name="NATURALO">     2</i>
   <i type="logical" name="LHOLEGF"> F  </i>
   <i type="logical" name="L2ORDER"> F  </i>
   <i type="logical" name="LDMP1"> F  </i>
   <i type="logical" name="LMP2LT"> F  </i>
   <i type="logical" name="LSMP2LT"> F  </i>
   <i type="logical" name="LGWLF"> F  </i>
   <i name="ENCUTGW">     -1.60000002</i>
   <i name="ENCUTGWSOFT">     -1.60000002</i>
   <i name="ENCUTLF">     -1.00000000</i>
   <i type="logical" name="ESF_SPLINES"> F  </i>
   <i name="ESF_CONV">      0.01000000</i>
   <i type="int" name="ESF_NINTER">    15</i>
   <i type="int" name="LMAXMP2">    -1</i>
   <i name="SCISSOR">      0.00000000</i>
   <i type="int" name="NOMEGA">     0</i>
   <i type="int" name="NOMEGAR">     0</i>
   <i type="int" name="NBANDSGW">    -1</i>
   <i type="int" name="NBANDSO">    -1</i>
   <i type="int" name="NBANDSV">    -1</i>
   <i type="int" name="NELMGW">     1</i>
   <i type="int" name="NELMHF">     1</i>
   <i type="int" name="DIM">     3</i>
   <i type="int" name="IESPILON">     4</i>
   <i type="int" name="ANTIRES">     0</i>
   <i name="OMEGAMAX">    -30.00000000</i>
   <i name="OMEGAMIN">    -30.00000000</i>
   <i name="OMEGATL">   -200.00000000</i>
   <i type="int" name="OMEGAGRID">     0</i>
   <i name="CSHIFT">     -0.10000000</i>
   <i type="logical" name="LSELFENERGY"> F  </i>
   <i type="logical" name="LSPECTRAL"> F  </i>
   <i type="logical" name="LSPECTRALGW"> F  </i>
   <i type="logical" name="LSINGLES"> F  </i>
   <i type="logical" name="LFERMIGW"> F  </i>
   <i type="logical" name="ODDONLYGW"> F  </i>
   <i type="logical" name="EVENONLYGW"> F  </i>
   <i type="int" name="NKREDLFX">     1</i>
   <i type="int" name="NKREDLFY">     1</i>
   <i type="int" name="NKREDLFZ">     1</i>
   <i type="int" name="MAXMEM">  2800</i>
   <i type="int" name="TELESCOPE">     0</i>
   <i type="int" name="NTAUPAR">    -1</i>
   <i type="int" name="NOMEGAPAR">    -1</i>
   <i name="DAMP_NEWTON">      0.80000001</i>
   <i name="LAMBDA">      1.00000000</i>
  </separator>
  <separator name="External order field" >
   <i name="OFIELD_KAPPA">      0.00000000</i>
   <v name="OFIELD_K">      0.00000000      0.00000000      0.00000000</v>
   <i name="OFIELD_Q6_NEAR">      0.00000000</i>
   <i name="OFIELD_Q6_FAR">      0.00000000</i>
   <i name="OFIELD_A">      0.00000000</i>
  </separator>
  <separator name="optional k-points parameters" >
   <i type="int" name="KPOINTS_OPT_MODE">     1</i>
   <i type="logical" name="LKPOINTS_OPT"> F  </i>
  </separator>
 </parameters>
 <atominfo>
  <atoms>       5 </atoms>
  <types>       3 </types>
  <array name="atoms" >
   <dimension dim="1">ion</dimension>
   <field type="string">element</field>
   <field type="int">atomtype</field>
   <set>
    <rc><c>Ba</c><c>   1</c></rc>
    <rc><c>Zr</c><c>   2</c></rc>
    <rc><c>O </c><c>   3</c></rc>
    <rc><c>O </c><c>   3</c></rc>
    <rc><c>O </c><c>   3</c></rc>
   </set>
  </array>
  <array name="atomtypes" >
   <dimension dim="1">type</dimension>
   <field type="int">atomspertype</field>
   <field type="string">element</field>
   <field>mass</field>
   <field>valence</field>
   <field type="string">pseudopotential</field>
   <set>
    <rc><c>   1</c><c>Ba</c><c>    137.32700000</c><c>     10.00000000</c><c>  PAW_PBE Ba_sv 06Sep2000               </c></rc>
    <rc><c>   1</c><c>Zr</c><c>     91.22400000</c><c>     12.00000000</c><c>  PAW_PBE Zr_sv 04Jan2005               </c></rc>
    <rc><c>   3</c><c>O </c><c>     16.00000000</c><c>      6.00000000</c><c>  PAW_PBE O 08Apr2002                   </c></rc>
   </set>
  </array>
 </atominfo>
 <structure name="initialpos" >
  <crystal>
   <varray name="basis" >
    <v>       4.19200000       0.00000000       0.00000000 </v>
    <v>       0.00000000       4.19200000       0.00000000 </v>
    <v>       0.00000000       0.00000000       4.19200000 </v>
   </varray>
   <i name="volume">     73.66544589 </i>
   <varray name="rec_basis" >
    <v>       0.23854962       0.00000000       0.00000000 </v>
    <v>       0.00000000       0.23854962       0.00000000 </v>
    <v>       0.00000000       0.00000000       0.23854962 </v>
   </varray>
  </crystal>
  <varray name="positions" >
   <v>       0.00000000       0.00000000       0.00000000 </v>
   <v>       0.50000000       0.50000000       0.50000000 </v>
   <v>       0.50000000       0.50000000       0.00000000 </v>
   <v>       0.50000000       0.00000000       0.50000000 </v>
   <v>       0.00000000       0.50000000       0.50000000 </v>
  </varray>
 </structure>
 <calculation>
  <scstep>
   <time name="dav">    0.12    0.58</time>
   <time name="total">    0.22    0.72</time>
   <energy>
    <i name="alphaZ">    240.34259355 </i>
    <i name="ewald">  -2693.37944630 </i>
    <i name="hartreedc">   -682.79388567 </i>
    <i name="XCdc">    159.34887639 </i>
    <i name="pawpsdc">   2561.05225630 </i>
    <i name="pawaedc">  -2544.85325127 </i>
    <i name="eentropy">     -0.00004770 </i>
    <i name="bandstr">     12.53706383 </i>
    <i name="atom">   3282.14706587 </i>
    <i name="e_fr_energy">    334.40122501 </i>
    <i name="e_wo_entrp">    334.40127271 </i>
    <i name="e_0_energy">    334.40124886 </i>
   </energy>
  </scstep>
  <scstep>
   <time name="dav">    0.11    0.11</time>
   <time name="total">    0.11    0.11</time>
   <energy>
    <i name="e_fr_energy">    -28.28237811 </i>
    <i name="e_wo_entrp">    -28.28237811 </i>
    <i name="e_0_energy">    -28.28237811 </i>
   </energy>
  </scstep>
  <scstep>
   <time name="dav">    0.13    0.14</time>
   <time name="total">    0.13    0.14</time>
   <energy>
    <i name="e_fr_energy">    -48.73677539 </i>
    <i name="e_wo_entrp">    -48.73677539 </i>
    <i name="e_0_energy">    -48.73677539 </i>
   </energy>
  </scstep>
  <scstep>
   <time name="dav">    0.12    0.12</time>
   <time name="total">    0.12    0.12</time>
   <energy>
    <i name="e_fr_energy">    -49.24705996 </i>
    <i name="e_wo_entrp">    -49.24705996 </i>
    <i name="e_0_energy">    -49.24705996 </i>
   </energy>
  </scstep>
  <scstep>
   <time name="dav">    0.12    0.12</time>
   <time name="total">    0.14    0.14</time>
   <energy>
    <i name="e_fr_energy">    -49.26249766 </i>
    <i name="e_wo_entrp">    -49.26249766 </i>
    <i name="e_0_energy">    -49.26249766 </i>
   </energy>
  </scstep>
  <scstep>
   <time name="dav">    0.11    0.11</time>
   <time name="total">    0.22    0.22</time>
   <energy>
    <i name="e_fr_energy">    -41.68842648 </i>
    <i name="e_wo_entrp">    -41.68842648 </i>
    <i name="e_0_energy">    -41.68842648 </i>
   </energy>
  </scstep>
  <scstep>
   <time name="dav">    0.12    0.12</time>
   <time name="total">    0.23    0.23</time>
   <energy>
    <i name="e_fr_energy">    -41.70188713 </i>
    <i name="e_wo_entrp">    -41.70188713 </i>
    <i name="e_0_energy">    -41.70188713 </i>
   </energy>
  </scstep>
  <scstep>
   <time name="dav">    0.11    0.11</time>
   <time name="total">    0.22    0.23</time>
   <energy>
    <i name="e_fr_energy">    -41.68953493 </i>
    <i name="e_wo_entrp">    -41.68953493 </i>
    <i name="e_0_energy">    -41.68953493 </i>
   </energy>
  </scstep>
  <scstep>
   <time name="dav">    0.11    0.12</time>
   <time name="total">    0.23    0.23</time>
   <energy>
    <i name="e_fr_energy">    -41.68736403 </i>
    <i name="e_wo_entrp">    -41.68736403 </i>
    <i name="e_0_energy">    -41.68736403 </i>
   </energy>
  </scstep>
  <scstep>
   <time name="dav">    0.11    0.11</time>
   <time name="total">    0.22    0.22</time>
   <energy>
    <i name="e_fr_energy">    -41.68903047 </i>
    <i name="e_wo_entrp">    -41.68903047 </i>
    <i name="e_0_energy">    -41.68903047 </i>
   </energy>
  </scstep>
  <scstep>
   <time name="dav">    0.11    0.11</time>
   <time name="total">    0.22    0.22</time>
   <energy>
    <i name="e_fr_energy">    -41.68863729 </i>
    <i name="e_wo_entrp">    -41.68863729 </i>
    <i name="e_0_energy">    -41.68863729 </i>
   </energy>
  </scstep>
  <scstep>
   <time name="dav">    0.11    0.11</time>
   <time name="total">    0.22    0.22</time>
   <energy>
    <i name="e_fr_energy">    -41.68868668 </i>
    <i name="e_wo_entrp">    -41.68868668 </i>
    <i name="e_0_energy">    -41.68868668 </i>
   </energy>
  </scstep>
  <scstep>
   <time name="dav">    0.13    0.13</time>
   <time name="total">    0.24    0.25</time>
   <energy>
    <i name="e_fr_energy">    -41.68868708 </i>
    <i name="e_wo_entrp">    -41.68868708 </i>
    <i name="e_0_energy">    -41.68868708 </i>
   </energy>
  </scstep>
  <scstep>
   <time name="dav">    0.09    0.09</time>
   <time name="total">    0.18    0.18</time>
   <energy>
    <i name="alphaZ">    240.34259355 </i>
    <i name="ewald">  -2693.37944630 </i>
    <i name="hartreedc">   -710.90923515 </i>
    <i name="XCdc">    161.77322321 </i>
    <i name="pawpsdc">   4600.10591823 </i>
    <i name="pawaedc">  -4586.94429483 </i>
    <i name="eentropy">     -0.00000000 </i>
    <i name="bandstr">   -334.82451181 </i>
    <i name="atom">   3282.14706587 </i>
    <i name="e_fr_energy">    -41.68868722 </i>
    <i name="e_wo_entrp">    -41.68868722 </i>
    <i name="e_0_energy">    -41.68868722 </i>
   </energy>
  </scstep>
  <structure>
   <crystal>
    <varray name="basis" >
     <v>       4.19200000       0.00000000       0.00000000 </v>
     <v>       0.00000000       4.19200000       0.00000000 </v>
     <v>       0.00000000       0.00000000       4.19200000 </v>
    </varray>
    <i name="volume">     73.66544589 </i>
    <varray name="rec_basis" >
     <v>       0.23854962       0.00000000       0.00000000 </v>
     <v>       0.00000000       0.23854962       0.00000000 </v>
     <v>       0.00000000       0.00000000       0.23854962 </v>
    </varray>
   </crystal>
   <varray name="positions" >
    <v>       0.00000000       0.00000000       0.00000000 </v>
    <v>       0.50000000       0.50000000       0.50000000 </v>
    <v>       0.50000000       0.50000000       0.00000000 </v>
    <v>       0.50000000       0.00000000       0.50000000 </v>
    <v>       0.00000000       0.50000000       0.50000000 </v>
   </varray>
  </structure>
  <varray name="forces" >
   <v>      -0.00000000       0.00000000      -0.00000000 </v>
   <v>       0.00000000      -0.00000000       0.00000000 </v>
   <v>      -0.00000000      -0.00000000       0.00000000 </v>
   <v>      -0.00000000       0.00000000      -0.00000000 </v>
   <v>       0.00000000       0.00000000      -0.00000000 </v>
  </varray>
  <varray name="stress" >
   <v>      49.76201084       0.00000000       0.00000000 </v>
   <v>       0.00000000      49.76201084       0.00000000 </v>
   <v>       0.00000000       0.00000000      49.76201084 </v>
  </varray>
  <energy>
   <i name="e_fr_energy">    -41.68868722 </i>
   <i name="e_wo_entrp">    -41.68868722 </i>
   <i name="e_0_energy">    -41.68868722 </i>
  </energy>
  <time name="totalsc">    3.58    4.10</time>
 </calculation>
 <calculation>
  <scstep>
   <time name="dav">    0.10    0.10</time>
   <time name="total">    0.20    0.21</time>
   <energy>
    <i name="alphaZ">    225.10321234 </i>
    <i name="ewald">  -2635.20572121 </i>
    <i name="hartreedc">   -695.55410513 </i>
    <i name="XCdc">    158.43041352 </i>
    <i name="pawpsdc">   4600.21401889 </i>
    <i name="pawaedc">  -4587.05257140 </i>
    <i name="eentropy">     -0.00000000 </i>
    <i name="bandstr">   -390.76885342 </i>
    <i name="atom">   3282.14706587 </i>
    <i name="e_fr_energy">    -42.68654053 </i>
    <i name="e_wo_entrp">    -42.68654053 </i>
    <i name="e_0_energy">    -42.68654053 </i>
   </energy>
  </scstep>
  <scstep>
   <time name="dav">    0.10    0.10</time>
   <time name="total">    0.21    0.21</time>
   <energy>
    <i name="e_fr_energy">    -41.87130475 </i>
    <i name="e_wo_entrp">    -41.87130475 </i>
    <i name="e_0_energy">    -41.87130475 </i>
   </energy>
  </scstep>
  <scstep>
   <time name="dav">    0.11    0.11</time>
   <time name="total">    0.22    0.22</time>
   <energy>
    <i name="e_fr_energy">    -41.69098132 </i>
    <i name="e_wo_entrp">    -41.69098132 </i>
    <i name="e_0_energy">    -41.69098132 </i>
   </energy>
  </scstep>
  <scstep>
   <time name="dav">    0.12    0.12</time>
   <time name="total">    0.23    0.23</time>
   <energy>
    <i name="e_fr_energy">    -41.67435822 </i>
    <i name="e_wo_entrp">    -41.67435822 </i>
    <i name="e_0_energy">    -41.67435822 </i>
   </energy>
  </scstep>
  <scstep>
   <time name="dav">    0.12    0.12</time>
   <time name="total">    0.23    0.23</time>
   <energy>
    <i name="e_fr_energy">    -41.67925887 </i>
    <i name="e_wo_entrp">    -41.67925887 </i>
    <i name="e_0_energy">    -41.67925887 </i>
   </energy>
  </scstep>
  <scstep>
   <time name="dav">    0.14    0.14</time>
   <time name="total">    0.25    0.25</time>
   <energy>
    <i name="e_fr_energy">    -41.68384306 </i>
    <i name="e_wo_entrp">    -41.68384306 </i>
    <i name="e_0_energy">    -41.68384306 </i>
   </energy>
  </scstep>
  <scstep>
   <time name="dav">    0.12    0.12</time>
   <time name="total">    0.23    0.23</time>
   <energy>
    <i name="e_fr_energy">    -41.68401208 </i>
    <i name="e_wo_entrp">    -41.68401208 </i>
    <i name="e_0_energy">    -41.68401208 </i>
   </energy>
  </scstep>
  <scstep>
   <time name="dav">    0.12    0.12</time>
   <time name="total">    0.23    0.23</time>
   <energy>
    <i name="e_fr_energy">    -41.68403433 </i>
    <i name="e_wo_entrp">    -41.68403433 </i>
    <i name="e_0_energy">    -41.68403433 </i>
   </energy>
  </scstep>
  <scstep>
   <time name="dav">    0.12    0.12</time>
   <time name="total">    0.23    0.23</time>
   <energy>
    <i name="e_fr_energy">    -41.68403444 </i>
    <i name="e_wo_entrp">    -41.68403444 </i>
    <i name="e_0_energy">    -41.68403444 </i>
   </energy>
  </scstep>
  <scstep>
   <time name="dav">    0.09    0.10</time>
   <time name="total">    0.18    0.19</time>
   <energy>
    <i name="alphaZ">    225.10321234 </i>
    <i name="ewald">  -2635.20572121 </i>
    <i name="hartreedc">   -731.39310217 </i>
    <i name="XCdc">    160.73078035 </i>
    <i name="pawpsdc">   4142.36761929 </i>
    <i name="pawaedc">  -4129.68836316 </i>
    <i name="eentropy">     -0.00000000 </i>
    <i name="bandstr">   -355.74552665 </i>
    <i name="atom">   3282.14706587 </i>
    <i name="e_fr_energy">    -41.68403534 </i>
    <i name="e_wo_entrp">    -41.68403534 </i>
    <i name="e_0_energy">    -41.68403534 </i>
   </energy>
  </scstep>
  <structure>
   <crystal>
    <varray name="basis" >
     <v>       4.28454088       0.00000000       0.00000000 </v>
     <v>       0.00000000       4.28454088       0.00000000 </v>
     <v>       0.00000000       0.00000000       4.28454088 </v>
    </varray>
    <i name="volume">     78.65256180 </i>
    <varray name="rec_basis" >
     <v>       0.23339724      -0.00000000      -0.00000000 </v>
     <v>      -0.00000000       0.23339724      -0.00000000 </v>
     <v>      -0.00000000      -0.00000000       0.23339724 </v>
    </varray>
   </crystal>
   <varray name="positions" >
    <v>       1.00000000       0.00000000       1.00000000 </v>
    <v>       0.50000000       0.50000000       0.50000000 </v>
    <v>       0.50000000       0.50000000       0.00000000 </v>
    <v>       0.50000000       0.00000000       0.50000000 </v>
    <v>       0.00000000       0.50000000       0.50000000 </v>
   </varray>
  </structure>
  <varray name="forces" >
   <v>      -0.00000000      -0.00000000      -0.00000000 </v>
   <v>       0.00000000       0.00000000       0.00000000 </v>
   <v>      -0.00000000       0.00000000      -0.00000000 </v>
   <v>      -0.00000000      -0.00000000      -0.00000000 </v>
   <v>      -0.00000000      -0.00000000      -0.00000000 </v>
  </varray>
  <varray name="stress" >
   <v>     -48.05273391       0.00000000      -0.00000000 </v>
   <v>       0.00000000     -48.05273391       0.00000000 </v>
   <v>       0.00000000       0.00000000     -48.05273391 </v>
  </varray>
  <energy>
   <i name="e_fr_energy">    -41.68403534 </i>
   <i name="e_wo_entrp">    -41.68403534 </i>
   <i name="e_0_energy">    -41.68403534 </i>
  </energy>
  <time name="totalsc">    2.92    2.94</time>
 </calculation>
 <calculation>
  <scstep>
   <time name="dav">    0.10    0.10</time>
   <time name="total">    0.20    0.21</time>
   <energy>
    <i name="alphaZ">    232.84375948 </i>
    <i name="ewald">  -2665.07127338 </i>
    <i name="hartreedc">   -739.67660020 </i>
    <i name="XCdc">    162.47337894 </i>
    <i name="pawpsdc">   4142.30386946 </i>
    <i name="pawaedc">  -4129.62879491 </i>
    <i name="eentropy">     -0.00000000 </i>
    <i name="bandstr">   -327.39625559 </i>
    <i name="atom">   3282.14706587 </i>
    <i name="e_fr_energy">    -42.00485033 </i>
    <i name="e_wo_entrp">    -42.00485033 </i>
    <i name="e_0_energy">    -42.00485033 </i>
   </energy>
  </scstep>
  <scstep>
   <time name="dav">    0.10    0.10</time>
   <time name="total">    0.21    0.21</time>
   <energy>
    <i name="e_fr_energy">    -41.77030888 </i>
    <i name="e_wo_entrp">    -41.77030888 </i>
    <i name="e_0_energy">    -41.77030888 </i>
   </energy>
  </scstep>
  <scstep>
   <time name="dav">    0.11    0.12</time>
   <time name="total">    0.22    0.23</time>
   <energy>
    <i name="e_fr_energy">    -41.72496525 </i>
    <i name="e_wo_entrp">    -41.72496525 </i>
    <i name="e_0_energy">    -41.72496525 </i>
   </energy>
  </scstep>
  <scstep>
   <time name="dav">    0.13    0.13</time>
   <time name="total">    0.24    0.24</time>
   <energy>
    <i name="e_fr_energy">    -41.72196246 </i>
    <i name="e_wo_entrp">    -41.72196246 </i>
    <i name="e_0_energy">    -41.72196246 </i>
   </energy>
  </scstep>
  <scstep>
   <time name="dav">    0.12    0.12</time>
   <time name="total">    0.23    0.23</time>
   <energy>
    <i name="e_fr_energy">    -41.72345433 </i>
    <i name="e_wo_entrp">    -41.72345433 </i>
    <i name="e_0_energy">    -41.72345433 </i>
   </energy>
  </scstep>
  <scstep>
   <time name="dav">    0.13    0.13</time>
   <time name="total">    0.24    0.24</time>
   <energy>
    <i name="e_fr_energy">    -41.72451765 </i>
    <i name="e_wo_entrp">    -41.72451765 </i>
    <i name="e_0_energy">    -41.72451765 </i>
   </energy>
  </scstep>
  <scstep>
   <time name="dav">    0.12    0.12</time>
   <time name="total">    0.23    0.23</time>
   <energy>
    <i name="e_fr_energy">    -41.72459012 </i>
    <i name="e_wo_entrp">    -41.72459012 </i>
    <i name="e_0_energy">    -41.72459012 </i>
   </energy>
  </scstep>
  <scstep>
   <time name="dav">    0.11    0.11</time>
   <time name="total">    0.22    0.22</time>
   <energy>
    <i name="e_fr_energy">    -41.72459911 </i>
    <i name="e_wo_entrp">    -41.72459911 </i>
    <i name="e_0_energy">    -41.72459911 </i>
   </energy>
  </scstep>
  <scstep>
   <time name="dav">    0.09    0.09</time>
   <time name="total">    0.18    0.18</time>
   <energy>
    <i name="alphaZ">    232.84375948 </i>
    <i name="ewald">  -2665.07127338 </i>
    <i name="hartreedc">   -720.73209778 </i>
    <i name="XCdc">    161.25882724 </i>
    <i name="pawpsdc">   4363.86966199 </i>
    <i name="pawaedc">  -4350.95518850 </i>
    <i name="eentropy">     -0.00000000 </i>
    <i name="bandstr">   -345.08535416 </i>
    <i name="atom">   3282.14706587 </i>
    <i name="e_fr_energy">    -41.72459923 </i>
    <i name="e_wo_entrp">    -41.72459923 </i>
    <i name="e_0_energy">    -41.72459923 </i>
   </energy>
  </scstep>
  <structure>
   <crystal>
    <varray name="basis" >
     <v>       4.23652709       0.00000000       0.00000000 </v>
     <v>       0.00000000       4.23652709       0.00000000 </v>
     <v>       0.00000000       0.00000000       4.23652709 </v>
    </varray>
    <i name="volume">     76.03787346 </i>
    <varray name="rec_basis" >
     <v>       0.23604239      -0.00000000      -0.00000000 </v>
     <v>      -0.00000000       0.23604239      -0.00000000 </v>
     <v>      -0.00000000      -0.00000000       0.23604239 </v>
    </varray>
   </crystal>
   <varray name="positions" >
    <v>       0.00000000       0.00000000       0.00000000 </v>
    <v>       0.50000000       0.50000000       0.50000000 </v>
    <v>       0.50000000       0.50000000       0.00000000 </v>
    <v>       0.50000000       0.00000000       0.50000000 </v>
    <v>       0.00000000       0.50000000       0.50000000 </v>
   </varray>
  </structure>
  <varray name="forces" >
   <v>       0.00000000       0.00000000       0.00000000 </v>
   <v>      -0.00000000      -0.00000000      -0.00000000 </v>
   <v>       0.00000000      -0.00000000       0.00000000 </v>
   <v>      -0.00000000       0.00000000       0.00000000 </v>
   <v>       0.00000000       0.00000000      -0.00000000 </v>
  </varray>
  <varray name="stress" >
   <v>      -0.01828773      -0.00000000       0.00000000 </v>
   <v>       0.00000000      -0.01828773       0.00000000 </v>
   <v>      -0.00000000      -0.00000000      -0.01828773 </v>
  </varray>
  <energy>
   <i name="e_fr_energy">    -41.72459923 </i>
   <i name="e_wo_entrp">    -41.72459923 </i>
   <i name="e_0_energy">    -41.72459923 </i>
  </energy>
  <time name="totalsc">    2.67    2.69</time>
  <eigenvalues>
   <array>
    <dimension dim="1">band</dimension>
    <dimension dim="2">kpoint</dimension>
    <dimension dim="3">spin</dimension>
    <field>eigene</field>
    <field>occ</field>
    <set>
     <set comment="spin 1">
      <set comment="kpoint 1">
       <r>  -43.6562    1.0000 </r>
       <r>  -21.9068    1.0000 </r>
       <r>  -21.7895    1.0000 </r>
       <r>  -21.7895    1.0000 </r>
       <r>  -21.7256    1.0000 </r>
       <r>  -12.7147    1.0000 </r>
       <r>  -12.4052    1.0000 </r>
       <r>  -12.4052    1.0000 </r>
       <r>   -6.9869    1.0000 </r>
       <r>   -6.9869    1.0000 </r>
       <r>   -6.9227    1.0000 </r>
       <r>    1.7957    1.0000 </r>
       <r>    1.9831    1.0000 </r>
       <r>    1.9831    1.0000 </r>
       <r>    2.3418    1.0000 </r>
       <r>    2.3418    1.0000 </r>
       <r>    2.6800    1.0000 </r>
       <r>    2.9657    1.0000 </r>
       <r>    3.1274    1.0000 </r>
       <r>    3.1274    1.0000 </r>
       <r>    6.9824    0.0000 </r>
       <r>    6.9984    0.0000 </r>
       <r>    6.9984    0.0000 </r>
       <r>    8.5133    0.0000 </r>
      </set>
      <set comment="kpoint 2">
       <r>  -43.6550    1.0000 </r>
       <r>  -21.9948    1.0000 </r>
       <r>  -21.8008    1.0000 </r>
       <r>  -21.7869    1.0000 </r>
       <r>  -21.6961    1.0000 </r>
       <r>  -12.7253    1.0000 </r>
       <r>  -12.3942    1.0000 </r>
       <r>  -12.0960    1.0000 </r>
       <r>   -6.9767    1.0000 </r>
       <r>   -6.9722    1.0000 </r>
       <r>   -6.8549    1.0000 </r>
       <r>    1.0734    1.0000 </r>
       <r>    1.6172    1.0000 </r>
       <r>    1.8506    1.0000 </r>
       <r>    1.8972    1.0000 </r>
       <r>    1.9411    1.0000 </r>
       <r>    2.4856    1.0000 </r>
       <r>    2.5834    1.0000 </r>
       <r>    2.9632    1.0000 </r>
       <r>    2.9921    1.0000 </r>
       <r>    7.1503    0.0000 </r>
       <r>    7.8460    0.0000 </r>
       <r>    7.9018    0.0000 </r>
       <r>    9.2206    0.0000 </r>
      </set>
      <set comment="kpoint 3">
       <r>  -43.6538    1.0000 </r>
       <r>  -22.0859    1.0000 </r>
       <r>  -21.7871    1.0000 </r>
       <r>  -21.7844    1.0000 </r>
       <r>  -21.6848    1.0000 </r>
       <r>  -12.7976    1.0000 </r>
       <r>  -12.3832    1.0000 </r>
       <r>  -11.6954    1.0000 </r>
       <r>   -6.9575    1.0000 </r>
       <r>   -6.9148    1.0000 </r>
       <r>   -6.8394    1.0000 </r>
       <r>    0.1182    1.0000 </r>
       <r>    1.2897    1.0000 </r>
       <r>    1.5903    1.0000 </r>
       <r>    1.6294    1.0000 </r>
       <r>    1.7326    1.0000 </r>
       <r>    2.3723    1.0000 </r>
       <r>    2.3890    1.0000 </r>
       <r>    2.8403    1.0000 </r>
       <r>    2.8940    1.0000 </r>
       <r>    7.3296    0.0000 </r>
       <r>    8.8668    0.0000 </r>
       <r>    8.8977    0.0000 </r>
       <r>    9.9346    0.0000 </r>
      </set>
      <set comment="kpoint 4">
       <r>  -43.6538    1.0000 </r>
       <r>  -21.9883    1.0000 </r>
       <r>  -21.8808    1.0000 </r>
       <r>  -21.7883    1.0000 </r>
       <r>  -21.6937    1.0000 </r>
       <r>  -12.6233    1.0000 </r>
       <r>  -12.1512    1.0000 </r>
       <r>  -12.0973    1.0000 </r>
       <r>   -7.0368    1.0000 </r>
       <r>   -6.9719    1.0000 </r>
       <r>   -6.8194    1.0000 </r>
       <r>    0.8416    1.0000 </r>
       <r>    1.0955    1.0000 </r>
       <r>    1.2350    1.0000 </r>
       <r>    1.6327    1.0000 </r>
       <r>    1.7260    1.0000 </r>
       <r>    2.2266    1.0000 </r>
       <r>    2.6978    1.0000 </r>
       <r>    2.8006    1.0000 </r>
       <r>    3.0280    1.0000 </r>
       <r>    7.9929    0.0000 </r>
       <r>    8.0042    0.0000 </r>
       <r>    8.3154    0.0000 </r>
       <r>    9.8777    0.0000 </r>
      </set>
      <set comment="kpoint 5">
       <r>  -43.6526    1.0000 </r>
       <r>  -22.0415    1.0000 </r>
       <r>  -21.8832    1.0000 </r>
       <r>  -21.7831    1.0000 </r>
       <r>  -21.7118    1.0000 </r>
       <r>  -12.6212    1.0000 </r>
       <r>  -12.1420    1.0000 </r>
       <r>  -11.7378    1.0000 </r>
       <r>   -7.0332    1.0000 </r>
       <r>   -6.9631    1.0000 </r>
       <r>   -6.8555    1.0000 </r>
       <r>    0.0954    1.0000 </r>
       <r>    0.5667    1.0000 </r>
       <r>    1.0645    1.0000 </r>
       <r>    1.4632    1.0000 </r>
       <r>    1.4946    1.0000 </r>
       <r>    2.3288    1.0000 </r>
       <r>    2.5588    1.0000 </r>
       <r>    2.6863    1.0000 </r>
       <r>    3.1063    1.0000 </r>
       <r>    8.1374    0.0000 </r>
       <r>    8.9162    0.0000 </r>
       <r>    9.0955    0.0000 </r>
       <r>   10.4568    0.0000 </r>
      </set>
      <set comment="kpoint 6">
       <r>  -43.6514    1.0000 </r>
       <r>  -21.9906    1.0000 </r>
       <r>  -21.9689    1.0000 </r>
       <r>  -21.7802    1.0000 </r>
       <r>  -21.7534    1.0000 </r>
       <r>  -12.5391    1.0000 </r>
       <r>  -11.7848    1.0000 </r>
       <r>  -11.7762    1.0000 </r>
       <r>   -7.0758    1.0000 </r>
       <r>   -7.0450    1.0000 </r>
       <r>   -6.8612    1.0000 </r>
       <r>    0.0634    1.0000 </r>
       <r>    0.0911    1.0000 </r>
       <r>    0.1420    1.0000 </r>
       <r>    1.2987    1.0000 </r>
       <r>    1.3003    1.0000 </r>
       <r>    2.4701    1.0000 </r>
       <r>    2.6034    1.0000 </r>
       <r>    2.6872    1.0000 </r>
       <r>    3.4210    1.0000 </r>
       <r>    8.9417    0.0000 </r>
       <r>    8.9560    0.0000 </r>
       <r>    9.6098    0.0000 </r>
       <r>   10.0900    0.0000 </r>
      </set>
      <set comment="kpoint 7">
       <r>  -43.6526    1.0000 </r>
       <r>  -21.9673    1.0000 </r>
       <r>  -21.8779    1.0000 </r>
       <r>  -21.8779    1.0000 </r>
       <r>  -21.7020    1.0000 </r>
       <r>  -12.3423    1.0000 </r>
       <r>  -12.0736    1.0000 </r>
       <r>  -12.0736    1.0000 </r>
       <r>   -7.1008    1.0000 </r>
       <r>   -7.1008    1.0000 </r>
       <r>   -6.8048    1.0000 </r>
       <r>    0.6351    1.0000 </r>
       <r>    1.0899    1.0000 </r>
       <r>    1.0899    1.0000 </r>
       <r>    1.3712    1.0000 </r>
       <r>    1.3712    1.0000 </r>
       <r>    1.4972    1.0000 </r>
       <r>    2.8633    1.0000 </r>
       <r>    2.8633    1.0000 </r>
       <r>    3.0669    1.0000 </r>
       <r>    8.4045    0.0000 </r>
       <r>    8.4045    0.0000 </r>
       <r>    8.6702    0.0000 </r>
       <r>   10.4208    0.0000 </r>
      </set>
      <set comment="kpoint 8">
       <r>  -43.6514    1.0000 </r>
       <r>  -22.0100    1.0000 </r>
       <r>  -21.8831    1.0000 </r>
       <r>  -21.8749    1.0000 </r>
       <r>  -21.7271    1.0000 </r>
       <r>  -12.2914    1.0000 </r>
       <r>  -12.0491    1.0000 </r>
       <r>  -11.7400    1.0000 </r>
       <r>   -7.1655    1.0000 </r>
       <r>   -7.1066    1.0000 </r>
       <r>   -6.9123    1.0000 </r>
       <r>    0.0913    1.0000 </r>
       <r>    0.5816    1.0000 </r>
       <r>    1.0831    1.0000 </r>
       <r>    1.0949    1.0000 </r>
       <r>    1.1740    1.0000 </r>
       <r>    1.5557    1.0000 </r>
       <r>    2.7801    1.0000 </r>
       <r>    3.0017    1.0000 </r>
       <r>    3.1495    1.0000 </r>
       <r>    8.6389    0.0000 </r>
       <r>    9.1753    0.0000 </r>
       <r>    9.2106    0.0000 </r>
       <r>   10.7066    0.0000 </r>
      </set>
      <set comment="kpoint 9">
       <r>  -43.6502    1.0000 </r>
       <r>  -21.9776    1.0000 </r>
       <r>  -21.9656    1.0000 </r>
       <r>  -21.8737    1.0000 </r>
       <r>  -21.7499    1.0000 </r>
       <r>  -12.1458    1.0000 </r>
       <r>  -11.7513    1.0000 </r>
       <r>  -11.7363    1.0000 </r>
       <r>   -7.2263    1.0000 </r>
       <r>   -7.2196    1.0000 </r>
       <r>   -7.0603    1.0000 </r>
       <r>    0.0683    1.0000 </r>
       <r>    0.1373    1.0000 </r>
       <r>    0.5264    1.0000 </r>
       <r>    1.0949    1.0000 </r>
       <r>    1.1659    1.0000 </r>
       <r>    1.2948    1.0000 </r>
       <r>    3.0028    1.0000 </r>
       <r>    3.0699    1.0000 </r>
       <r>    3.4404    1.0000 </r>
       <r>    9.2224    0.0000 </r>
       <r>    9.2326    0.0000 </r>
       <r>    9.7119    0.0000 </r>
       <r>   10.1176    0.0000 </r>
      </set>
      <set comment="kpoint 10">
       <r>  -43.6490    1.0000 </r>
       <r>  -21.9652    1.0000 </r>
       <r>  -21.9622    1.0000 </r>
       <r>  -21.9622    1.0000 </r>
       <r>  -21.7467    1.0000 </r>
       <r>  -11.7468    1.0000 </r>
       <r>  -11.6944    1.0000 </r>
       <r>  -11.6944    1.0000 </r>
       <r>   -7.3612    1.0000 </r>
       <r>   -7.3612    1.0000 </r>
       <r>   -7.2823    1.0000 </r>
       <r>    0.0735    1.0000 </r>
       <r>    0.0735    1.0000 </r>
       <r>    0.2422    1.0000 </r>
       <r>    0.8977    1.0000 </r>
       <r>    1.0646    1.0000 </r>
       <r>    1.0646    1.0000 </r>
       <r>    3.4019    1.0000 </r>
       <r>    3.4019    1.0000 </r>
       <r>    3.4921    1.0000 </r>
       <r>    9.3797    0.0000 </r>
       <r>    9.5408    0.0000 </r>
       <r>    9.5408    0.0000 </r>
       <r>   10.2633    0.0000 </r>
      </set>
     </set>
    </set>
   </array>
  </eigenvalues>
  <separator name="orbital magnetization" >
   <v name="MAGDIPOLOUT">      0.00000000      0.00000000      0.00000000</v>
  </separator>
  <dos>
   <i name="efermi">      3.70275430 </i>
   <total>
    <array>
     <dimension dim="1">gridpoints</dimension>
     <dimension dim="2">spin</dimension>
     <field>energy</field>
     <field>total</field>
     <field>integrated</field>
     <set>
      <set comment="spin 1">
       <r>   -46.3743     0.0000     0.0000 </r>
       <r>   -46.3444     0.0000     0.0000 </r>
       <r>   -46.3145     0.0000     0.0000 </r>
       <r>   -46.2846     0.0000     0.0000 </r>
       <r>   -46.2547     0.0000     0.0000 </r>
       <r>   -46.2248     0.0000     0.0000 </r>
       <r>   -46.1948     0.0000     0.0000 </r>
       <r>   -46.1649     0.0000     0.0000 </r>
       <r>   -46.1350     0.0000     0.0000 </r>
       <r>   -46.1051     0.0000     0.0000 </r>
       <r>   -46.0752     0.0000     0.0000 </r>
       <r>   -46.0453     0.0000     0.0000 </r>
       <r>   -46.0154     0.0000     0.0000 </r>
       <r>   -45.9854     0.0000     0.0000 </r>
       <r>   -45.9555     0.0000     0.0000 </r>
       <r>   -45.9256     0.0000     0.0000 </r>
       <r>   -45.8957     0.0000     0.0000 </r>
       <r>   -45.8658     0.0000     0.0000 </r>
       <r>   -45.8359     0.0000     0.0000 </r>
       <r>   -45.8060     0.0000     0.0000 </r>
       <r>   -45.7760     0.0000     0.0000 </r>
       <r>   -45.7461     0.0000     0.0000 </r>
       <r>   -45.7162     0.0000     0.0000 </r>
       <r>   -45.6863     0.0000     0.0000 </r>
       <r>   -45.6564     0.0000     0.0000 </r>
       <r>   -45.6265     0.0000     0.0000 </r>
       <r>   -45.5966     0.0000     0.0000 </r>
       <r>   -45.5666     0.0000     0.0000 </r>
       <r>   -45.5367     0.0000     0.0000 </r>
       <r>   -45.5068     0.0000     0.0000 </r>
       <r>   -45.4769     0.0000     0.0000 </r>
       <r>   -45.4470     0.0000     0.0000 </r>
       <r>   -45.4171     0.0000     0.0000 </r>
       <r>   -45.3872     0.0000     0.0000 </r>
       <r>   -45.3572     0.0000     0.0000 </r>
       <r>   -45.3273     0.0000     0.0000 </r>
       <r>   -45.2974     0.0000     0.0000 </r>
       <r>   -45.2675     0.0000     0.0000 </r>
       <r>   -45.2376     0.0000     0.0000 </r>
       <r>   -45.2077     0.0000     0.0000 </r>
       <r>   -45.1778     0.0000     0.0000 </r>
       <r>   -45.1478     0.0000     0.0000 </r>
       <r>   -45.1179     0.0000     0.0000 </r>
       <r>   -45.0880     0.0000     0.0000 </r>
       <r>   -45.0581     0.0000     0.0000 </r>
       <r>   -45.0282     0.0000     0.0000 </r>
       <r>   -44.9983     0.0000     0.0000 </r>
       <r>   -44.9683     0.0000     0.0000 </r>
       <r>   -44.9384     0.0000     0.0000 </r>
       <r>   -44.9085     0.0000     0.0000 </r>
       <r>   -44.8786     0.0000     0.0000 </r>
       <r>   -44.8487     0.0000     0.0000 </r>
       <r>   -44.8188     0.0000     0.0000 </r>
       <r>   -44.7889     0.0000     0.0000 </r>
       <r>   -44.7589     0.0000     0.0000 </r>
       <r>   -44.7290     0.0000     0.0000 </r>
       <r>   -44.6991     0.0000     0.0000 </r>
       <r>   -44.6692     0.0000     0.0000 </r>
       <r>   -44.6393     0.0000     0.0000 </r>
       <r>   -44.6094     0.0000     0.0000 </r>
       <r>   -44.5795     0.0000     0.0000 </r>
       <r>   -44.5495     0.0000     0.0000 </r>
       <r>   -44.5196     0.0000     0.0000 </r>
       <r>   -44.4897     0.0000     0.0000 </r>
       <r>   -44.4598     0.0000     0.0000 </r>
       <r>   -44.4299     0.0000     0.0000 </r>
       <r>   -44.4000     0.0000     0.0000 </r>
       <r>   -44.3701     0.0000     0.0000 </r>
       <r>   -44.3401     0.0000     0.0000 </r>
       <r>   -44.3102     0.0000     0.0000 </r>
       <r>   -44.2803     0.0000     0.0000 </r>
       <r>   -44.2504     0.0000     0.0000 </r>
       <r>   -44.2205     0.0000     0.0000 </r>
       <r>   -44.1906     0.0000     0.0000 </r>
       <r>   -44.1607     0.0000     0.0000 </r>
       <r>   -44.1307     0.0000     0.0000 </r>
       <r>   -44.1008     0.0000     0.0000 </r>
       <r>   -44.0709     0.0000     0.0000 </r>
       <r>   -44.0410     0.0000     0.0000 </r>
       <r>   -44.0111     0.0000     0.0000 </r>
       <r>   -43.9812     0.0000     0.0000 </r>
       <r>   -43.9513     0.0000     0.0000 </r>
       <r>   -43.9213     0.0000     0.0000 </r>
       <r>   -43.8914     0.0000     0.0000 </r>
       <r>   -43.8615     0.0000     0.0000 </r>
       <r>   -43.8316     0.0000     0.0000 </r>
       <r>   -43.8017     0.0008     0.0000 </r>
       <r>   -43.7718     0.0246     0.0008 </r>
       <r>   -43.7419     0.3652     0.0117 </r>
       <r>   -43.7119     2.7407     0.0937 </r>
       <r>   -43.6820    10.4364     0.4059 </r>
       <r>   -43.6521    20.2335     1.0111 </r>
       <r>   -43.6222    20.0097     1.6097 </r>
       <r>   -43.5923    10.0935     1.9117 </r>
       <r>   -43.5624     2.5920     1.9892 </r>
       <r>   -43.5325     0.3377     1.9993 </r>
       <r>   -43.5025     0.0222     2.0000 </r>
       <r>   -43.4726     0.0007     2.0000 </r>
       <r>   -43.4427     0.0000     2.0000 </r>
       <r>   -43.4128     0.0000     2.0000 </r>
       <r>   -43.3829     0.0000     2.0000 </r>
       <r>   -43.3530     0.0000     2.0000 </r>
       <r>   -43.3231     0.0000     2.0000 </r>
       <r>   -43.2931     0.0000     2.0000 </r>
       <r>   -43.2632     0.0000     2.0000 </r>
       <r>   -43.2333     0.0000     2.0000 </r>
       <r>   -43.2034     0.0000     2.0000 </r>
       <r>   -43.1735     0.0000     2.0000 </r>
       <r>   -43.1436     0.0000     2.0000 </r>
       <r>   -43.1137     0.0000     2.0000 </r>
       <r>   -43.0837     0.0000     2.0000 </r>
       <r>   -43.0538     0.0000     2.0000 </r>
       <r>   -43.0239     0.0000     2.0000 </r>
       <r>   -42.9940     0.0000     2.0000 </r>
       <r>   -42.9641     0.0000     2.0000 </r>
       <r>   -42.9342     0.0000     2.0000 </r>
       <r>   -42.9042     0.0000     2.0000 </r>
       <r>   -42.8743     0.0000     2.0000 </r>
       <r>   -42.8444     0.0000     2.0000 </r>
       <r>   -42.8145     0.0000     2.0000 </r>
       <r>   -42.7846     0.0000     2.0000 </r>
       <r>   -42.7547     0.0000     2.0000 </r>
       <r>   -42.7248     0.0000     2.0000 </r>
       <r>   -42.6948     0.0000     2.0000 </r>
       <r>   -42.6649     0.0000     2.0000 </r>
       <r>   -42.6350     0.0000     2.0000 </r>
       <r>   -42.6051     0.0000     2.0000 </r>
       <r>   -42.5752     0.0000     2.0000 </r>
       <r>   -42.5453     0.0000     2.0000 </r>
       <r>   -42.5154     0.0000     2.0000 </r>
       <r>   -42.4854     0.0000     2.0000 </r>
       <r>   -42.4555     0.0000     2.0000 </r>
       <r>   -42.4256     0.0000     2.0000 </r>
       <r>   -42.3957     0.0000     2.0000 </r>
       <r>   -42.3658     0.0000     2.0000 </r>
       <r>   -42.3359     0.0000     2.0000 </r>
       <r>   -42.3060     0.0000     2.0000 </r>
       <r>   -42.2760     0.0000     2.0000 </r>
       <r>   -42.2461     0.0000     2.0000 </r>
       <r>   -42.2162     0.0000     2.0000 </r>
       <r>   -42.1863     0.0000     2.0000 </r>
       <r>   -42.1564     0.0000     2.0000 </r>
       <r>   -42.1265     0.0000     2.0000 </r>
       <r>   -42.0966     0.0000     2.0000 </r>
       <r>   -42.0666     0.0000     2.0000 </r>
       <r>   -42.0367     0.0000     2.0000 </r>
       <r>   -42.0068     0.0000     2.0000 </r>
       <r>   -41.9769     0.0000     2.0000 </r>
       <r>   -41.9470     0.0000     2.0000 </r>
       <r>   -41.9171     0.0000     2.0000 </r>
       <r>   -41.8872     0.0000     2.0000 </r>
       <r>   -41.8572     0.0000     2.0000 </r>
       <r>   -41.8273     0.0000     2.0000 </r>
       <r>   -41.7974     0.0000     2.0000 </r>
       <r>   -41.7675     0.0000     2.0000 </r>
       <r>   -41.7376     0.0000     2.0000 </r>
       <r>   -41.7077     0.0000     2.0000 </r>
       <r>   -41.6778     0.0000     2.0000 </r>
       <r>   -41.6478     0.0000     2.0000 </r>
       <r>   -41.6179     0.0000     2.0000 </r>
       <r>   -41.5880     0.0000     2.0000 </r>
       <r>   -41.5581     0.0000     2.0000 </r>
       <r>   -41.5282     0.0000     2.0000 </r>
       <r>   -41.4983     0.0000     2.0000 </r>
       <r>   -41.4684     0.0000     2.0000 </r>
       <r>   -41.4384     0.0000     2.0000 </r>
       <r>   -41.4085     0.0000     2.0000 </r>
       <r>   -41.3786     0.0000     2.0000 </r>
       <r>   -41.3487     0.0000     2.0000 </r>
       <r>   -41.3188     0.0000     2.0000 </r>
       <r>   -41.2889     0.0000     2.0000 </r>
       <r>   -41.2590     0.0000     2.0000 </r>
       <r>   -41.2290     0.0000     2.0000 </r>
       <r>   -41.1991     0.0000     2.0000 </r>
       <r>   -41.1692     0.0000     2.0000 </r>
       <r>   -41.1393     0.0000     2.0000 </r>
       <r>   -41.1094     0.0000     2.0000 </r>
       <r>   -41.0795     0.0000     2.0000 </r>
       <r>   -41.0496     0.0000     2.0000 </r>
       <r>   -41.0196     0.0000     2.0000 </r>
       <r>   -40.9897     0.0000     2.0000 </r>
       <r>   -40.9598     0.0000     2.0000 </r>
       <r>   -40.9299     0.0000     2.0000 </r>
       <r>   -40.9000     0.0000     2.0000 </r>
       <r>   -40.8701     0.0000     2.0000 </r>
       <r>   -40.8402     0.0000     2.0000 </r>
       <r>   -40.8102     0.0000     2.0000 </r>
       <r>   -40.7803     0.0000     2.0000 </r>
       <r>   -40.7504     0.0000     2.0000 </r>
       <r>   -40.7205     0.0000     2.0000 </r>
       <r>   -40.6906     0.0000     2.0000 </r>
       <r>   -40.6607     0.0000     2.0000 </r>
       <r>   -40.6307     0.0000     2.0000 </r>
       <r>   -40.6008     0.0000     2.0000 </r>
       <r>   -40.5709     0.0000     2.0000 </r>
       <r>   -40.5410     0.0000     2.0000 </r>
       <r>   -40.5111     0.0000     2.0000 </r>
       <r>   -40.4812     0.0000     2.0000 </r>
       <r>   -40.4513     0.0000     2.0000 </r>
       <r>   -40.4213     0.0000     2.0000 </r>
       <r>   -40.3914     0.0000     2.0000 </r>
       <r>   -40.3615     0.0000     2.0000 </r>
       <r>   -40.3316     0.0000     2.0000 </r>
       <r>   -40.3017     0.0000     2.0000 </r>
       <r>   -40.2718     0.0000     2.0000 </r>
       <r>   -40.2419     0.0000     2.0000 </r>
       <r>   -40.2119     0.0000     2.0000 </r>
       <r>   -40.1820     0.0000     2.0000 </r>
       <r>   -40.1521     0.0000     2.0000 </r>
       <r>   -40.1222     0.0000     2.0000 </r>
       <r>   -40.0923     0.0000     2.0000 </r>
       <r>   -40.0624     0.0000     2.0000 </r>
       <r>   -40.0325     0.0000     2.0000 </r>
       <r>   -40.0025     0.0000     2.0000 </r>
       <r>   -39.9726     0.0000     2.0000 </r>
       <r>   -39.9427     0.0000     2.0000 </r>
       <r>   -39.9128     0.0000     2.0000 </r>
       <r>   -39.8829     0.0000     2.0000 </r>
       <r>   -39.8530     0.0000     2.0000 </r>
       <r>   -39.8231     0.0000     2.0000 </r>
       <r>   -39.7931     0.0000     2.0000 </r>
       <r>   -39.7632     0.0000     2.0000 </r>
       <r>   -39.7333     0.0000     2.0000 </r>
       <r>   -39.7034     0.0000     2.0000 </r>
       <r>   -39.6735     0.0000     2.0000 </r>
       <r>   -39.6436     0.0000     2.0000 </r>
       <r>   -39.6137     0.0000     2.0000 </r>
       <r>   -39.5837     0.0000     2.0000 </r>
       <r>   -39.5538     0.0000     2.0000 </r>
       <r>   -39.5239     0.0000     2.0000 </r>
       <r>   -39.4940     0.0000     2.0000 </r>
       <r>   -39.4641     0.0000     2.0000 </r>
       <r>   -39.4342     0.0000     2.0000 </r>
       <r>   -39.4043     0.0000     2.0000 </r>
       <r>   -39.3743     0.0000     2.0000 </r>
       <r>   -39.3444     0.0000     2.0000 </r>
       <r>   -39.3145     0.0000     2.0000 </r>
       <r>   -39.2846     0.0000     2.0000 </r>
       <r>   -39.2547     0.0000     2.0000 </r>
       <r>   -39.2248     0.0000     2.0000 </r>
       <r>   -39.1949     0.0000     2.0000 </r>
       <r>   -39.1649     0.0000     2.0000 </r>
       <r>   -39.1350     0.0000     2.0000 </r>
       <r>   -39.1051     0.0000     2.0000 </r>
       <r>   -39.0752     0.0000     2.0000 </r>
       <r>   -39.0453     0.0000     2.0000 </r>
       <r>   -39.0154     0.0000     2.0000 </r>
       <r>   -38.9855     0.0000     2.0000 </r>
       <r>   -38.9555     0.0000     2.0000 </r>
       <r>   -38.9256     0.0000     2.0000 </r>
       <r>   -38.8957     0.0000     2.0000 </r>
       <r>   -38.8658     0.0000     2.0000 </r>
       <r>   -38.8359     0.0000     2.0000 </r>
       <r>   -38.8060     0.0000     2.0000 </r>
       <r>   -38.7761     0.0000     2.0000 </r>
       <r>   -38.7461     0.0000     2.0000 </r>
       <r>   -38.7162     0.0000     2.0000 </r>
       <r>   -38.6863     0.0000     2.0000 </r>
       <r>   -38.6564     0.0000     2.0000 </r>
       <r>   -38.6265     0.0000     2.0000 </r>
       <r>   -38.5966     0.0000     2.0000 </r>
       <r>   -38.5666     0.0000     2.0000 </r>
       <r>   -38.5367     0.0000     2.0000 </r>
       <r>   -38.5068     0.0000     2.0000 </r>
       <r>   -38.4769     0.0000     2.0000 </r>
       <r>   -38.4470     0.0000     2.0000 </r>
       <r>   -38.4171     0.0000     2.0000 </r>
       <r>   -38.3872     0.0000     2.0000 </r>
       <r>   -38.3572     0.0000     2.0000 </r>
       <r>   -38.3273     0.0000     2.0000 </r>
       <r>   -38.2974     0.0000     2.0000 </r>
       <r>   -38.2675     0.0000     2.0000 </r>
       <r>   -38.2376     0.0000     2.0000 </r>
       <r>   -38.2077     0.0000     2.0000 </r>
       <r>   -38.1778     0.0000     2.0000 </r>
       <r>   -38.1478     0.0000     2.0000 </r>
       <r>   -38.1179     0.0000     2.0000 </r>
       <r>   -38.0880     0.0000     2.0000 </r>
       <r>   -38.0581     0.0000     2.0000 </r>
       <r>   -38.0282     0.0000     2.0000 </r>
       <r>   -37.9983     0.0000     2.0000 </r>
       <r>   -37.9684     0.0000     2.0000 </r>
       <r>   -37.9384     0.0000     2.0000 </r>
       <r>   -37.9085     0.0000     2.0000 </r>
       <r>   -37.8786     0.0000     2.0000 </r>
       <r>   -37.8487     0.0000     2.0000 </r>
       <r>   -37.8188     0.0000     2.0000 </r>
       <r>   -37.7889     0.0000     2.0000 </r>
       <r>   -37.7590     0.0000     2.0000 </r>
       <r>   -37.7290     0.0000     2.0000 </r>
       <r>   -37.6991     0.0000     2.0000 </r>
       <r>   -37.6692     0.0000     2.0000 </r>
       <r>   -37.6393     0.0000     2.0000 </r>
       <r>   -37.6094     0.0000     2.0000 </r>
       <r>   -37.5795     0.0000     2.0000 </r>
       <r>   -37.5496     0.0000     2.0000 </r>
       <r>   -37.5196     0.0000     2.0000 </r>
       <r>   -37.4897     0.0000     2.0000 </r>
       <r>   -37.4598     0.0000     2.0000 </r>
       <r>   -37.4299     0.0000     2.0000 </r>
       <r>   -37.4000     0.0000     2.0000 </r>
       <r>   -37.3701     0.0000     2.0000 </r>
       <r>   -37.3402     0.0000     2.0000 </r>
       <r>   -37.3102     0.0000     2.0000 </r>
       <r>   -37.2803     0.0000     2.0000 </r>
       <r>   -37.2504     0.0000     2.0000 </r>
       <r>   -37.2205     0.0000     2.0000 </r>
       <r>   -37.1906     0.0000     2.0000 </r>
       <r>   -37.1607     0.0000     2.0000 </r>
       <r>   -37.1308     0.0000     2.0000 </r>
       <r>   -37.1008     0.0000     2.0000 </r>
       <r>   -37.0709     0.0000     2.0000 </r>
       <r>   -37.0410     0.0000     2.0000 </r>
       <r>   -37.0111     0.0000     2.0000 </r>
       <r>   -36.9812     0.0000     2.0000 </r>
       <r>   -36.9513     0.0000     2.0000 </r>
       <r>   -36.9214     0.0000     2.0000 </r>
       <r>   -36.8914     0.0000     2.0000 </r>
       <r>   -36.8615     0.0000     2.0000 </r>
       <r>   -36.8316     0.0000     2.0000 </r>
       <r>   -36.8017     0.0000     2.0000 </r>
       <r>   -36.7718     0.0000     2.0000 </r>
       <r>   -36.7419     0.0000     2.0000 </r>
       <r>   -36.7120     0.0000     2.0000 </r>
       <r>   -36.6820     0.0000     2.0000 </r>
       <r>   -36.6521     0.0000     2.0000 </r>
       <r>   -36.6222     0.0000     2.0000 </r>
       <r>   -36.5923     0.0000     2.0000 </r>
       <r>   -36.5624     0.0000     2.0000 </r>
       <r>   -36.5325     0.0000     2.0000 </r>
       <r>   -36.5025     0.0000     2.0000 </r>
       <r>   -36.4726     0.0000     2.0000 </r>
       <r>   -36.4427     0.0000     2.0000 </r>
       <r>   -36.4128     0.0000     2.0000 </r>
       <r>   -36.3829     0.0000     2.0000 </r>
       <r>   -36.3530     0.0000     2.0000 </r>
       <r>   -36.3231     0.0000     2.0000 </r>
       <r>   -36.2931     0.0000     2.0000 </r>
       <r>   -36.2632     0.0000     2.0000 </r>
       <r>   -36.2333     0.0000     2.0000 </r>
       <r>   -36.2034     0.0000     2.0000 </r>
       <r>   -36.1735     0.0000     2.0000 </r>
       <r>   -36.1436     0.0000     2.0000 </r>
       <r>   -36.1137     0.0000     2.0000 </r>
       <r>   -36.0837     0.0000     2.0000 </r>
       <r>   -36.0538     0.0000     2.0000 </r>
       <r>   -36.0239     0.0000     2.0000 </r>
       <r>   -35.9940     0.0000     2.0000 </r>
       <r>   -35.9641     0.0000     2.0000 </r>
       <r>   -35.9342     0.0000     2.0000 </r>
       <r>   -35.9043     0.0000     2.0000 </r>
       <r>   -35.8743     0.0000     2.0000 </r>
       <r>   -35.8444     0.0000     2.0000 </r>
       <r>   -35.8145     0.0000     2.0000 </r>
       <r>   -35.7846     0.0000     2.0000 </r>
       <r>   -35.7547     0.0000     2.0000 </r>
       <r>   -35.7248     0.0000     2.0000 </r>
       <r>   -35.6949     0.0000     2.0000 </r>
       <r>   -35.6649     0.0000     2.0000 </r>
       <r>   -35.6350     0.0000     2.0000 </r>
       <r>   -35.6051     0.0000     2.0000 </r>
       <r>   -35.5752     0.0000     2.0000 </r>
       <r>   -35.5453     0.0000     2.0000 </r>
       <r>   -35.5154     0.0000     2.0000 </r>
       <r>   -35.4855     0.0000     2.0000 </r>
       <r>   -35.4555     0.0000     2.0000 </r>
       <r>   -35.4256     0.0000     2.0000 </r>
       <r>   -35.3957     0.0000     2.0000 </r>
       <r>   -35.3658     0.0000     2.0000 </r>
       <r>   -35.3359     0.0000     2.0000 </r>
       <r>   -35.3060     0.0000     2.0000 </r>
       <r>   -35.2761     0.0000     2.0000 </r>
       <r>   -35.2461     0.0000     2.0000 </r>
       <r>   -35.2162     0.0000     2.0000 </r>
       <r>   -35.1863     0.0000     2.0000 </r>
       <r>   -35.1564     0.0000     2.0000 </r>
       <r>   -35.1265     0.0000     2.0000 </r>
       <r>   -35.0966     0.0000     2.0000 </r>
       <r>   -35.0667     0.0000     2.0000 </r>
       <r>   -35.0367     0.0000     2.0000 </r>
       <r>   -35.0068     0.0000     2.0000 </r>
       <r>   -34.9769     0.0000     2.0000 </r>
       <r>   -34.9470     0.0000     2.0000 </r>
       <r>   -34.9171     0.0000     2.0000 </r>
       <r>   -34.8872     0.0000     2.0000 </r>
       <r>   -34.8573     0.0000     2.0000 </r>
       <r>   -34.8273     0.0000     2.0000 </r>
       <r>   -34.7974     0.0000     2.0000 </r>
       <r>   -34.7675     0.0000     2.0000 </r>
       <r>   -34.7376     0.0000     2.0000 </r>
       <r>   -34.7077     0.0000     2.0000 </r>
       <r>   -34.6778     0.0000     2.0000 </r>
       <r>   -34.6479     0.0000     2.0000 </r>
       <r>   -34.6179     0.0000     2.0000 </r>
       <r>   -34.5880     0.0000     2.0000 </r>
       <r>   -34.5581     0.0000     2.0000 </r>
       <r>   -34.5282     0.0000     2.0000 </r>
       <r>   -34.4983     0.0000     2.0000 </r>
       <r>   -34.4684     0.0000     2.0000 </r>
       <r>   -34.4384     0.0000     2.0000 </r>
       <r>   -34.4085     0.0000     2.0000 </r>
       <r>   -34.3786     0.0000     2.0000 </r>
       <r>   -34.3487     0.0000     2.0000 </r>
       <r>   -34.3188     0.0000     2.0000 </r>
       <r>   -34.2889     0.0000     2.0000 </r>
       <r>   -34.2590     0.0000     2.0000 </r>
       <r>   -34.2290     0.0000     2.0000 </r>
       <r>   -34.1991     0.0000     2.0000 </r>
       <r>   -34.1692     0.0000     2.0000 </r>
       <r>   -34.1393     0.0000     2.0000 </r>
       <r>   -34.1094     0.0000     2.0000 </r>
       <r>   -34.0795     0.0000     2.0000 </r>
       <r>   -34.0496     0.0000     2.0000 </r>
       <r>   -34.0196     0.0000     2.0000 </r>
       <r>   -33.9897     0.0000     2.0000 </r>
       <r>   -33.9598     0.0000     2.0000 </r>
       <r>   -33.9299     0.0000     2.0000 </r>
       <r>   -33.9000     0.0000     2.0000 </r>
       <r>   -33.8701     0.0000     2.0000 </r>
       <r>   -33.8402     0.0000     2.0000 </r>
       <r>   -33.8102     0.0000     2.0000 </r>
       <r>   -33.7803     0.0000     2.0000 </r>
       <r>   -33.7504     0.0000     2.0000 </r>
       <r>   -33.7205     0.0000     2.0000 </r>
       <r>   -33.6906     0.0000     2.0000 </r>
       <r>   -33.6607     0.0000     2.0000 </r>
       <r>   -33.6308     0.0000     2.0000 </r>
       <r>   -33.6008     0.0000     2.0000 </r>
       <r>   -33.5709     0.0000     2.0000 </r>
       <r>   -33.5410     0.0000     2.0000 </r>
       <r>   -33.5111     0.0000     2.0000 </r>
       <r>   -33.4812     0.0000     2.0000 </r>
       <r>   -33.4513     0.0000     2.0000 </r>
       <r>   -33.4214     0.0000     2.0000 </r>
       <r>   -33.3914     0.0000     2.0000 </r>
       <r>   -33.3615     0.0000     2.0000 </r>
       <r>   -33.3316     0.0000     2.0000 </r>
       <r>   -33.3017     0.0000     2.0000 </r>
       <r>   -33.2718     0.0000     2.0000 </r>
       <r>   -33.2419     0.0000     2.0000 </r>
       <r>   -33.2120     0.0000     2.0000 </r>
       <r>   -33.1820     0.0000     2.0000 </r>
       <r>   -33.1521     0.0000     2.0000 </r>
       <r>   -33.1222     0.0000     2.0000 </r>
       <r>   -33.0923     0.0000     2.0000 </r>
       <r>   -33.0624     0.0000     2.0000 </r>
       <r>   -33.0325     0.0000     2.0000 </r>
       <r>   -33.0026     0.0000     2.0000 </r>
       <r>   -32.9726     0.0000     2.0000 </r>
       <r>   -32.9427     0.0000     2.0000 </r>
       <r>   -32.9128     0.0000     2.0000 </r>
       <r>   -32.8829     0.0000     2.0000 </r>
       <r>   -32.8530     0.0000     2.0000 </r>
       <r>   -32.8231     0.0000     2.0000 </r>
       <r>   -32.7932     0.0000     2.0000 </r>
       <r>   -32.7632     0.0000     2.0000 </r>
       <r>   -32.7333     0.0000     2.0000 </r>
       <r>   -32.7034     0.0000     2.0000 </r>
       <r>   -32.6735     0.0000     2.0000 </r>
       <r>   -32.6436     0.0000     2.0000 </r>
       <r>   -32.6137     0.0000     2.0000 </r>
       <r>   -32.5838     0.0000     2.0000 </r>
       <r>   -32.5538     0.0000     2.0000 </r>
       <r>   -32.5239     0.0000     2.0000 </r>
       <r>   -32.4940     0.0000     2.0000 </r>
       <r>   -32.4641     0.0000     2.0000 </r>
       <r>   -32.4342     0.0000     2.0000 </r>
       <r>   -32.4043     0.0000     2.0000 </r>
       <r>   -32.3744     0.0000     2.0000 </r>
       <r>   -32.3444     0.0000     2.0000 </r>
       <r>   -32.3145     0.0000     2.0000 </r>
       <r>   -32.2846     0.0000     2.0000 </r>
       <r>   -32.2547     0.0000     2.0000 </r>
       <r>   -32.2248     0.0000     2.0000 </r>
       <r>   -32.1949     0.0000     2.0000 </r>
       <r>   -32.1649     0.0000     2.0000 </r>
       <r>   -32.1350     0.0000     2.0000 </r>
       <r>   -32.1051     0.0000     2.0000 </r>
       <r>   -32.0752     0.0000     2.0000 </r>
       <r>   -32.0453     0.0000     2.0000 </r>
       <r>   -32.0154     0.0000     2.0000 </r>
       <r>   -31.9855     0.0000     2.0000 </r>
       <r>   -31.9555     0.0000     2.0000 </r>
       <r>   -31.9256     0.0000     2.0000 </r>
       <r>   -31.8957     0.0000     2.0000 </r>
       <r>   -31.8658     0.0000     2.0000 </r>
       <r>   -31.8359     0.0000     2.0000 </r>
       <r>   -31.8060     0.0000     2.0000 </r>
       <r>   -31.7761     0.0000     2.0000 </r>
       <r>   -31.7461     0.0000     2.0000 </r>
       <r>   -31.7162     0.0000     2.0000 </r>
       <r>   -31.6863     0.0000     2.0000 </r>
       <r>   -31.6564     0.0000     2.0000 </r>
       <r>   -31.6265     0.0000     2.0000 </r>
       <r>   -31.5966     0.0000     2.0000 </r>
       <r>   -31.5667     0.0000     2.0000 </r>
       <r>   -31.5367     0.0000     2.0000 </r>
       <r>   -31.5068     0.0000     2.0000 </r>
       <r>   -31.4769     0.0000     2.0000 </r>
       <r>   -31.4470     0.0000     2.0000 </r>
       <r>   -31.4171     0.0000     2.0000 </r>
       <r>   -31.3872     0.0000     2.0000 </r>
       <r>   -31.3573     0.0000     2.0000 </r>
       <r>   -31.3273     0.0000     2.0000 </r>
       <r>   -31.2974     0.0000     2.0000 </r>
       <r>   -31.2675     0.0000     2.0000 </r>
       <r>   -31.2376     0.0000     2.0000 </r>
       <r>   -31.2077     0.0000     2.0000 </r>
       <r>   -31.1778     0.0000     2.0000 </r>
       <r>   -31.1479     0.0000     2.0000 </r>
       <r>   -31.1179     0.0000     2.0000 </r>
       <r>   -31.0880     0.0000     2.0000 </r>
       <r>   -31.0581     0.0000     2.0000 </r>
       <r>   -31.0282     0.0000     2.0000 </r>
       <r>   -30.9983     0.0000     2.0000 </r>
       <r>   -30.9684     0.0000     2.0000 </r>
       <r>   -30.9385     0.0000     2.0000 </r>
       <r>   -30.9085     0.0000     2.0000 </r>
       <r>   -30.8786     0.0000     2.0000 </r>
       <r>   -30.8487     0.0000     2.0000 </r>
       <r>   -30.8188     0.0000     2.0000 </r>
       <r>   -30.7889     0.0000     2.0000 </r>
       <r>   -30.7590     0.0000     2.0000 </r>
       <r>   -30.7291     0.0000     2.0000 </r>
       <r>   -30.6991     0.0000     2.0000 </r>
       <r>   -30.6692     0.0000     2.0000 </r>
       <r>   -30.6393     0.0000     2.0000 </r>
       <r>   -30.6094     0.0000     2.0000 </r>
       <r>   -30.5795     0.0000     2.0000 </r>
       <r>   -30.5496     0.0000     2.0000 </r>
       <r>   -30.5197     0.0000     2.0000 </r>
       <r>   -30.4897     0.0000     2.0000 </r>
       <r>   -30.4598     0.0000     2.0000 </r>
       <r>   -30.4299     0.0000     2.0000 </r>
       <r>   -30.4000     0.0000     2.0000 </r>
       <r>   -30.3701     0.0000     2.0000 </r>
       <r>   -30.3402     0.0000     2.0000 </r>
       <r>   -30.3103     0.0000     2.0000 </r>
       <r>   -30.2803     0.0000     2.0000 </r>
       <r>   -30.2504     0.0000     2.0000 </r>
       <r>   -30.2205     0.0000     2.0000 </r>
       <r>   -30.1906     0.0000     2.0000 </r>
       <r>   -30.1607     0.0000     2.0000 </r>
       <r>   -30.1308     0.0000     2.0000 </r>
       <r>   -30.1008     0.0000     2.0000 </r>
       <r>   -30.0709     0.0000     2.0000 </r>
       <r>   -30.0410     0.0000     2.0000 </r>
       <r>   -30.0111     0.0000     2.0000 </r>
       <r>   -29.9812     0.0000     2.0000 </r>
       <r>   -29.9513     0.0000     2.0000 </r>
       <r>   -29.9214     0.0000     2.0000 </r>
       <r>   -29.8914     0.0000     2.0000 </r>
       <r>   -29.8615     0.0000     2.0000 </r>
       <r>   -29.8316     0.0000     2.0000 </r>
       <r>   -29.8017     0.0000     2.0000 </r>
       <r>   -29.7718     0.0000     2.0000 </r>
       <r>   -29.7419     0.0000     2.0000 </r>
       <r>   -29.7120     0.0000     2.0000 </r>
       <r>   -29.6820     0.0000     2.0000 </r>
       <r>   -29.6521     0.0000     2.0000 </r>
       <r>   -29.6222     0.0000     2.0000 </r>
       <r>   -29.5923     0.0000     2.0000 </r>
       <r>   -29.5624     0.0000     2.0000 </r>
       <r>   -29.5325     0.0000     2.0000 </r>
       <r>   -29.5026     0.0000     2.0000 </r>
       <r>   -29.4726     0.0000     2.0000 </r>
       <r>   -29.4427     0.0000     2.0000 </r>
       <r>   -29.4128     0.0000     2.0000 </r>
       <r>   -29.3829     0.0000     2.0000 </r>
       <r>   -29.3530     0.0000     2.0000 </r>
       <r>   -29.3231     0.0000     2.0000 </r>
       <r>   -29.2932     0.0000     2.0000 </r>
       <r>   -29.2632     0.0000     2.0000 </r>
       <r>   -29.2333     0.0000     2.0000 </r>
       <r>   -29.2034     0.0000     2.0000 </r>
       <r>   -29.1735     0.0000     2.0000 </r>
       <r>   -29.1436     0.0000     2.0000 </r>
       <r>   -29.1137     0.0000     2.0000 </r>
       <r>   -29.0838     0.0000     2.0000 </r>
       <r>   -29.0538     0.0000     2.0000 </r>
       <r>   -29.0239     0.0000     2.0000 </r>
       <r>   -28.9940     0.0000     2.0000 </r>
       <r>   -28.9641     0.0000     2.0000 </r>
       <r>   -28.9342     0.0000     2.0000 </r>
       <r>   -28.9043     0.0000     2.0000 </r>
       <r>   -28.8744     0.0000     2.0000 </r>
       <r>   -28.8444     0.0000     2.0000 </r>
       <r>   -28.8145     0.0000     2.0000 </r>
       <r>   -28.7846     0.0000     2.0000 </r>
       <r>   -28.7547     0.0000     2.0000 </r>
       <r>   -28.7248     0.0000     2.0000 </r>
       <r>   -28.6949     0.0000     2.0000 </r>
       <r>   -28.6650     0.0000     2.0000 </r>
       <r>   -28.6350     0.0000     2.0000 </r>
       <r>   -28.6051     0.0000     2.0000 </r>
       <r>   -28.5752     0.0000     2.0000 </r>
       <r>   -28.5453     0.0000     2.0000 </r>
       <r>   -28.5154     0.0000     2.0000 </r>
       <r>   -28.4855     0.0000     2.0000 </r>
       <r>   -28.4556     0.0000     2.0000 </r>
       <r>   -28.4256     0.0000     2.0000 </r>
       <r>   -28.3957     0.0000     2.0000 </r>
       <r>   -28.3658     0.0000     2.0000 </r>
       <r>   -28.3359     0.0000     2.0000 </r>
       <r>   -28.3060     0.0000     2.0000 </r>
       <r>   -28.2761     0.0000     2.0000 </r>
       <r>   -28.2462     0.0000     2.0000 </r>
       <r>   -28.2162     0.0000     2.0000 </r>
       <r>   -28.1863     0.0000     2.0000 </r>
       <r>   -28.1564     0.0000     2.0000 </r>
       <r>   -28.1265     0.0000     2.0000 </r>
       <r>   -28.0966     0.0000     2.0000 </r>
       <r>   -28.0667     0.0000     2.0000 </r>
       <r>   -28.0367     0.0000     2.0000 </r>
       <r>   -28.0068     0.0000     2.0000 </r>
       <r>   -27.9769     0.0000     2.0000 </r>
       <r>   -27.9470     0.0000     2.0000 </r>
       <r>   -27.9171     0.0000     2.0000 </r>
       <r>   -27.8872     0.0000     2.0000 </r>
       <r>   -27.8573     0.0000     2.0000 </r>
       <r>   -27.8273     0.0000     2.0000 </r>
       <r>   -27.7974     0.0000     2.0000 </r>
       <r>   -27.7675     0.0000     2.0000 </r>
       <r>   -27.7376     0.0000     2.0000 </r>
       <r>   -27.7077     0.0000     2.0000 </r>
       <r>   -27.6778     0.0000     2.0000 </r>
       <r>   -27.6479     0.0000     2.0000 </r>
       <r>   -27.6179     0.0000     2.0000 </r>
       <r>   -27.5880     0.0000     2.0000 </r>
       <r>   -27.5581     0.0000     2.0000 </r>
       <r>   -27.5282     0.0000     2.0000 </r>
       <r>   -27.4983     0.0000     2.0000 </r>
       <r>   -27.4684     0.0000     2.0000 </r>
       <r>   -27.4385     0.0000     2.0000 </r>
       <r>   -27.4085     0.0000     2.0000 </r>
       <r>   -27.3786     0.0000     2.0000 </r>
       <r>   -27.3487     0.0000     2.0000 </r>
       <r>   -27.3188     0.0000     2.0000 </r>
       <r>   -27.2889     0.0000     2.0000 </r>
       <r>   -27.2590     0.0000     2.0000 </r>
       <r>   -27.2291     0.0000     2.0000 </r>
       <r>   -27.1991     0.0000     2.0000 </r>
       <r>   -27.1692     0.0000     2.0000 </r>
       <r>   -27.1393     0.0000     2.0000 </r>
       <r>   -27.1094     0.0000     2.0000 </r>
       <r>   -27.0795     0.0000     2.0000 </r>
       <r>   -27.0496     0.0000     2.0000 </r>
       <r>   -27.0197     0.0000     2.0000 </r>
       <r>   -26.9897     0.0000     2.0000 </r>
       <r>   -26.9598     0.0000     2.0000 </r>
       <r>   -26.9299     0.0000     2.0000 </r>
       <r>   -26.9000     0.0000     2.0000 </r>
       <r>   -26.8701     0.0000     2.0000 </r>
       <r>   -26.8402     0.0000     2.0000 </r>
       <r>   -26.8103     0.0000     2.0000 </r>
       <r>   -26.7803     0.0000     2.0000 </r>
       <r>   -26.7504     0.0000     2.0000 </r>
       <r>   -26.7205     0.0000     2.0000 </r>
       <r>   -26.6906     0.0000     2.0000 </r>
       <r>   -26.6607     0.0000     2.0000 </r>
       <r>   -26.6308     0.0000     2.0000 </r>
       <r>   -26.6009     0.0000     2.0000 </r>
       <r>   -26.5709     0.0000     2.0000 </r>
       <r>   -26.5410     0.0000     2.0000 </r>
       <r>   -26.5111     0.0000     2.0000 </r>
       <r>   -26.4812     0.0000     2.0000 </r>
       <r>   -26.4513     0.0000     2.0000 </r>
       <r>   -26.4214     0.0000     2.0000 </r>
       <r>   -26.3915     0.0000     2.0000 </r>
       <r>   -26.3615     0.0000     2.0000 </r>
       <r>   -26.3316     0.0000     2.0000 </r>
       <r>   -26.3017     0.0000     2.0000 </r>
       <r>   -26.2718     0.0000     2.0000 </r>
       <r>   -26.2419     0.0000     2.0000 </r>
       <r>   -26.2120     0.0000     2.0000 </r>
       <r>   -26.1821     0.0000     2.0000 </r>
       <r>   -26.1521     0.0000     2.0000 </r>
       <r>   -26.1222     0.0000     2.0000 </r>
[...]
        <r>  0.0000  0.0038  0.0000  0.0038  0.0000  0.0000  0.0000  0.0000  0.0000 </r>
        <r>  0.0092  0.0000  0.0022  0.0001  0.0000  0.0000  0.0000  0.0000  0.0000 </r>
        <r>  0.0092  0.0001  0.0022  0.0000  0.0000  0.0000  0.0000  0.0000  0.0000 </r>
       </set>
       <set comment="band 11">
        <r>  0.0002  0.1393  0.6019  0.1393  0.0000  0.0000  0.0001  0.0000  0.0000 </r>
        <r>  0.0000  0.0000  0.0000  0.0000  0.0012  0.0001  0.0000  0.0001  0.0000 </r>
        <r>  0.0013  0.0010  0.0000  0.0010  0.0000  0.0000  0.0000  0.0000  0.0000 </r>
        <r>  0.0069  0.0000  0.0003  0.0026  0.0000  0.0000  0.0000  0.0000  0.0000 </r>
        <r>  0.0069  0.0026  0.0003  0.0000  0.0000  0.0000  0.0000  0.0000  0.0000 </r>
       </set>
       <set comment="band 12">
        <r>  0.0000  0.0001  0.0000  0.0001  0.0000  0.0001  0.0000  0.0001  0.0000 </r>
        <r>  0.0000  0.0021  0.0000  0.0021  0.0000  0.0000  0.0000  0.0000  0.2974 </r>
        <r>  0.0000  0.0001  0.0000  0.0001  0.0000  0.0000  0.0000  0.0000  0.0000 </r>
        <r>  0.0005  0.2657  0.0000  0.0000  0.0000  0.0000  0.0000  0.0000  0.0000 </r>
        <r>  0.0005  0.0000  0.0000  0.2657  0.0000  0.0000  0.0000  0.0000  0.0000 </r>
       </set>
       <set comment="band 13">
        <r>  0.0002  0.0001  0.0003  0.0001  0.0048  0.0002  0.0000  0.0002  0.0000 </r>
        <r>  0.0901  0.0025  0.0001  0.0025  0.0008  0.0006  0.1175  0.0006  0.0000 </r>
        <r>  0.0004  0.0019  0.0029  0.0019  0.0000  0.0000  0.0000  0.0000  0.0000 </r>
        <r>  0.0009  0.2577  0.0009  0.0016  0.0000  0.0000  0.0000  0.0000  0.0000 </r>
        <r>  0.0009  0.0016  0.0009  0.2577  0.0000  0.0000  0.0000  0.0000  0.0000 </r>
       </set>
       <set comment="band 14">
        <r>  0.0132  0.0008  0.0435  0.0008  0.0000  0.0025  0.0081  0.0025  0.0000 </r>
        <r>  0.0005  0.0000  0.0004  0.0000  0.1045  0.0048  0.0039  0.0048  0.0000 </r>
        <r>  0.0000  0.0053  0.0031  0.0053  0.0000  0.0000  0.0000  0.0000  0.0000 </r>
        <r>  0.0000  0.0034  0.0137  0.1933  0.0000  0.0000  0.0000  0.0000  0.0000 </r>
        <r>  0.0000  0.1933  0.0137  0.0034  0.0000  0.0000  0.0000  0.0000  0.0000 </r>
       </set>
       <set comment="band 15">
        <r>  0.0000  0.0179  0.0091  0.0179  0.0011  0.0044  0.0022  0.0044  0.0000 </r>
        <r>  0.0107  0.0001  0.0142  0.0001  0.0091  0.0309  0.0480  0.0309  0.0000 </r>
        <r>  0.0026  0.0437  0.2051  0.0437  0.0000  0.0000  0.0000  0.0000  0.0000 </r>
        <r>  0.0001  0.0001  0.0845  0.0180  0.0000  0.0000  0.0000  0.0000  0.0000 </r>
        <r>  0.0001  0.0180  0.0845  0.0001  0.0000  0.0000  0.0000  0.0000  0.0000 </r>
       </set>
       <set comment="band 16">
        <r>  0.0000  0.0318  0.0000  0.0318  0.0000  0.0082  0.0000  0.0082  0.0017 </r>
        <r>  0.0000  0.0001  0.0000  0.0001  0.0000  0.0575  0.0000  0.0575  0.0000 </r>
        <r>  0.0000  0.0761  0.0000  0.0761  0.0000  0.0000  0.0000  0.0000  0.0000 </r>
        <r>  0.0001  0.0000  0.1547  0.0006  0.0000  0.0000  0.0000  0.0000  0.0000 </r>
        <r>  0.0001  0.0006  0.1547  0.0000  0.0000  0.0000  0.0000  0.0000  0.0000 </r>
       </set>
       <set comment="band 17">
        <r>  0.0002  0.0116  0.0022  0.0116  0.0005  0.0009  0.0009  0.0009  0.0000 </r>
        <r>  0.0324  0.0000  0.0180  0.0000  0.0019  0.0207  0.0608  0.0207  0.0000 </r>
        <r>  0.0040  0.0366  0.3650  0.0366  0.0000  0.0000  0.0000  0.0000  0.0000 </r>
        <r>  0.0000  0.0042  0.0452  0.0038  0.0000  0.0000  0.0000  0.0000  0.0000 </r>
        <r>  0.0000  0.0038  0.0452  0.0042  0.0000  0.0000  0.0000  0.0000  0.0000 </r>
       </set>
       <set comment="band 18">
        <r>  0.0004  0.0021  0.0008  0.0021  0.0056  0.0069  0.0015  0.0069  0.0000 </r>
        <r>  0.0000  0.0009  0.0001  0.0009  0.0001  0.0004  0.0013  0.0004  0.0000 </r>
        <r>  0.0007  0.2080  0.0023  0.2080  0.0000  0.0000  0.0000  0.0000  0.0000 </r>
        <r>  0.0010  0.0006  0.1217  0.0002  0.0000  0.0000  0.0000  0.0000  0.0000 </r>
        <r>  0.0010  0.0002  0.1217  0.0006  0.0000  0.0000  0.0000  0.0000  0.0000 </r>
       </set>
       <set comment="band 19">
        <r>  0.0000  0.0048  0.0000  0.0048  0.0000  0.0070  0.0000  0.0070  0.0001 </r>
        <r>  0.0000  0.0011  0.0000  0.0011  0.0000  0.0001  0.0000  0.0001  0.0003 </r>
        <r>  0.0000  0.2242  0.0000  0.2242  0.0000  0.0000  0.0000  0.0000  0.0000 </r>
        <r>  0.0010  0.0003  0.1052  0.0066  0.0000  0.0000  0.0000  0.0000  0.0000 </r>
        <r>  0.0010  0.0066  0.1052  0.0003  0.0000  0.0000  0.0000  0.0000  0.0000 </r>
       </set>
       <set comment="band 20">
        <r>  0.0000  0.0003  0.0000  0.0003  0.0000  0.0004  0.0000  0.0004  0.0066 </r>
        <r>  0.0000  0.0001  0.0000  0.0001  0.0000  0.0002  0.0000  0.0002  0.0000 </r>
        <r>  0.0000  0.0032  0.0000  0.0032  0.0000  0.0000  0.0000  0.0000  0.0000 </r>
        <r>  0.0001  0.0000  0.0056  0.3519  0.0000  0.0000  0.0000  0.0000  0.0000 </r>
        <r>  0.0001  0.3519  0.0056  0.0000  0.0000  0.0000  0.0000  0.0000  0.0000 </r>
       </set>
       <set comment="band 21">
        <r>  0.0008  0.0021  0.0003  0.0021  0.0585  0.0219  0.0004  0.0219  0.0000 </r>
        <r>  0.0004  0.0011  0.0024  0.0011  0.0025  0.2338  0.0013  0.2338  0.0000 </r>
        <r>  0.0087  0.0169  0.0001  0.0169  0.0000  0.0000  0.0000  0.0000  0.0000 </r>
        <r>  0.0027  0.0012  0.0631  0.0005  0.0000  0.0000  0.0000  0.0000  0.0000 </r>
        <r>  0.0027  0.0005  0.0631  0.0012  0.0000  0.0000  0.0000  0.0000  0.0000 </r>
       </set>
       <set comment="band 22">
        <r>  0.0000  0.0014  0.0000  0.0014  0.0000  0.0408  0.0000  0.0408  0.0087 </r>
        <r>  0.0000  0.0014  0.0000  0.0014  0.0000  0.2480  0.0000  0.2480  0.0002 </r>
        <r>  0.0000  0.0094  0.0000  0.0094  0.0000  0.0000  0.0000  0.0000  0.0000 </r>
        <r>  0.0039  0.0000  0.0815  0.0004  0.0000  0.0000  0.0000  0.0000  0.0000 </r>
        <r>  0.0039  0.0004  0.0815  0.0000  0.0000  0.0000  0.0000  0.0000  0.0000 </r>
       </set>
       <set comment="band 23">
        <r>  0.0001  0.0001  0.0005  0.0001  0.1047  0.0273  0.0641  0.0273  0.0000 </r>
        <r>  0.0002  0.0010  0.0018  0.0010  0.4098  0.0000  0.0029  0.0000  0.0000 </r>
        <r>  0.0116  0.0020  0.0000  0.0020  0.0000  0.0000  0.0000  0.0000  0.0000 </r>
        <r>  0.0028  0.0014  0.0051  0.0331  0.0000  0.0000  0.0000  0.0000  0.0000 </r>
        <r>  0.0028  0.0331  0.0051  0.0014  0.0000  0.0000  0.0000  0.0000  0.0000 </r>
       </set>
       <set comment="band 24">
        <r>  0.0002  0.0007  0.0000  0.0007  0.3243  0.0006  0.0115  0.0006  0.0000 </r>
        <r>  0.0015  0.0000  0.0053  0.0000  0.1610  0.0466  0.0082  0.0466  0.0000 </r>
        <r>  0.0370  0.0006  0.0016  0.0006  0.0000  0.0000  0.0000  0.0000  0.0000 </r>
        <r>  0.0000  0.0066  0.0150  0.0130  0.0000  0.0000  0.0000  0.0000  0.0000 </r>
        <r>  0.0000  0.0130  0.0150  0.0066  0.0000  0.0000  0.0000  0.0000  0.0000 </r>
       </set>
      </set>
      <set comment="kpoint 10">
       <set comment="band 1">
        <r>  0.0000  0.0000  0.0000  0.0000  0.0000  0.0000  0.0000  0.0000  0.0000 </r>
        <r>  0.9917  0.0000  0.0000  0.0000  0.0000  0.0000  0.0000  0.0000  0.0000 </r>
        <r>  0.0000  0.0000  0.0004  0.0000  0.0000  0.0000  0.0000  0.0000  0.0000 </r>
        <r>  0.0000  0.0004  0.0000  0.0000  0.0000  0.0000  0.0000  0.0000  0.0000 </r>
        <r>  0.0000  0.0000  0.0000  0.0004  0.0000  0.0000  0.0000  0.0000  0.0000 </r>
       </set>
       <set comment="band 2">
        <r>  0.0106  0.0000  0.0000  0.0000  0.0000  0.0000  0.0000  0.0000  0.0000 </r>
        <r>  0.0000  0.3046  0.3046  0.3046  0.0000  0.0000  0.0000  0.0000  0.0000 </r>
        <r>  0.0108  0.0000  0.0002  0.0000  0.0000  0.0000  0.0000  0.0000  0.0000 </r>
        <r>  0.0108  0.0002  0.0000  0.0000  0.0000  0.0000  0.0000  0.0000  0.0000 </r>
        <r>  0.0108  0.0000  0.0000  0.0002  0.0000  0.0000  0.0000  0.0000  0.0000 </r>
       </set>
       <set comment="band 3">
        <r>  0.0000  0.0000  0.0000  0.0000  0.0000  0.0001  0.0000  0.0001  0.0000 </r>
        <r>  0.0000  0.5123  0.0062  0.4059  0.0000  0.0000  0.0000  0.0000  0.0000 </r>
        <r>  0.0002  0.0000  0.0000  0.0000  0.0000  0.0000  0.0000  0.0000  0.0000 </r>
        <r>  0.0180  0.0003  0.0000  0.0000  0.0000  0.0000  0.0000  0.0000  0.0000 </r>
        <r>  0.0143  0.0000  0.0000  0.0003  0.0000  0.0000  0.0000  0.0000  0.0000 </r>
       </set>
       <set comment="band 4">
        <r>  0.0000  0.0000  0.0000  0.0000  0.0001  0.0000  0.0000  0.0000  0.0000 </r>
        <r>  0.0000  0.1039  0.6101  0.2104  0.0000  0.0000  0.0000  0.0000  0.0000 </r>
        <r>  0.0215  0.0000  0.0004  0.0000  0.0000  0.0000  0.0000  0.0000  0.0000 </r>
        <r>  0.0037  0.0001  0.0000  0.0000  0.0000  0.0000  0.0000  0.0000  0.0000 </r>
        <r>  0.0074  0.0000  0.0000  0.0001  0.0000  0.0000  0.0000  0.0000  0.0000 </r>
       </set>
       <set comment="band 5">
        <r>  0.9694  0.0000  0.0000  0.0000  0.0000  0.0000  0.0000  0.0000  0.0000 </r>
        <r>  0.0000  0.0035  0.0035  0.0035  0.0000  0.0000  0.0000  0.0000  0.0000 </r>
        <r>  0.0001  0.0000  0.0000  0.0000  0.0000  0.0000  0.0000  0.0000  0.0000 </r>
        <r>  0.0001  0.0000  0.0000  0.0000  0.0000  0.0000  0.0000  0.0000  0.0000 </r>
        <r>  0.0001  0.0000  0.0000  0.0000  0.0000  0.0000  0.0000  0.0000  0.0000 </r>
       </set>
       <set comment="band 6">
        <r>  0.0001  0.0020  0.0020  0.0020  0.0009  0.0009  0.0000  0.0009  0.0000 </r>
        <r>  0.0031  0.0214  0.0214  0.0214  0.0000  0.0000  0.0000  0.0000  0.0000 </r>
        <r>  0.2468  0.0000  0.0001  0.0000  0.0000  0.0000  0.0000  0.0000  0.0000 </r>
        <r>  0.2468  0.0001  0.0000  0.0000  0.0000  0.0000  0.0000  0.0000  0.0000 </r>
        <r>  0.2468  0.0000  0.0000  0.0001  0.0000  0.0000  0.0000  0.0000  0.0000 </r>
       </set>
       <set comment="band 7">
        <r>  0.0000  0.0009  0.0000  0.0006  0.0001  0.0011  0.0000  0.0016  0.0000 </r>
        <r>  0.0000  0.0376  0.0012  0.0254  0.0000  0.0000  0.0001  0.0000  0.0043 </r>
        <r>  0.0139  0.0000  0.0000  0.0000  0.0000  0.0000  0.0000  0.0000  0.0000 </r>
        <r>  0.4394  0.0002  0.0000  0.0000  0.0000  0.0000  0.0000  0.0000  0.0000 </r>
        <r>  0.2968  0.0000  0.0000  0.0001  0.0000  0.0000  0.0000  0.0000  0.0000 </r>
       </set>
       <set comment="band 8">
        <r>  0.0000  0.0001  0.0010  0.0004  0.0018  0.0007  0.0000  0.0002  0.0000 </r>
        <r>  0.0000  0.0052  0.0417  0.0174  0.0000  0.0000  0.0043  0.0000  0.0001 </r>
        <r>  0.4862  0.0000  0.0002  0.0000  0.0000  0.0000  0.0000  0.0000  0.0000 </r>
        <r>  0.0607  0.0000  0.0000  0.0000  0.0000  0.0000  0.0000  0.0000  0.0000 </r>
        <r>  0.2032  0.0000  0.0000  0.0001  0.0000  0.0000  0.0000  0.0000  0.0000 </r>
       </set>
       <set comment="band 9">
        <r>  0.0000  0.4004  0.0013  0.4475  0.0000  0.0000  0.0000  0.0000  0.0001 </r>
        <r>  0.0000  0.0000  0.0000  0.0000  0.0000  0.0022  0.0000  0.0020  0.0000 </r>
        <r>  0.0000  0.0043  0.0000  0.0039  0.0000  0.0000  0.0000  0.0000  0.0000 </r>
        <r>  0.0012  0.0000  0.0040  0.0000  0.0000  0.0000  0.0000  0.0000  0.0000 </r>
        <r>  0.0013  0.0000  0.0036  0.0000  0.0000  0.0000  0.0000  0.0000  0.0000 </r>
       </set>
       <set comment="band 10">
        <r>  0.0000  0.1658  0.5649  0.1186  0.0000  0.0000  0.0001  0.0000  0.0000 </r>
        <r>  0.0000  0.0000  0.0000  0.0000  0.0028  0.0006  0.0000  0.0008  0.0000 </r>
        <r>  0.0017  0.0010  0.0000  0.0014  0.0000  0.0000  0.0000  0.0000  0.0000 </r>
        <r>  0.0005  0.0000  0.0013  0.0053  0.0000  0.0000  0.0000  0.0000  0.0000 </r>
        <r>  0.0004  0.0053  0.0017  0.0000  0.0000  0.0000  0.0000  0.0000  0.0000 </r>
       </set>
       <set comment="band 11">
        <r>  0.0001  0.2844  0.2844  0.2844  0.0000  0.0000  0.0000  0.0000  0.0000 </r>
        <r>  0.0000  0.0000  0.0000  0.0000  0.0011  0.0011  0.0000  0.0011  0.0000 </r>
        <r>  0.0033  0.0023  0.0000  0.0023  0.0000  0.0000  0.0000  0.0000  0.0000 </r>
        <r>  0.0033  0.0000  0.0023  0.0023  0.0000  0.0000  0.0000  0.0000  0.0000 </r>
        <r>  0.0033  0.0023  0.0023  0.0000  0.0000  0.0000  0.0000  0.0000  0.0000 </r>
       </set>
       <set comment="band 12">
        <r>  0.0000  0.0000  0.0000  0.0000  0.0000  0.0002  0.0000  0.0002  0.0000 </r>
        <r>  0.0000  0.0022  0.0000  0.0019  0.0000  0.0000  0.0014  0.0000  0.2963 </r>
        <r>  0.0000  0.0000  0.0017  0.0000  0.0000  0.0000  0.0000  0.0000  0.0000 </r>
        <r>  0.0005  0.2863  0.0000  0.0000  0.0000  0.0000  0.0000  0.0000  0.0000 </r>
        <r>  0.0005  0.0000  0.0000  0.2442  0.0000  0.0000  0.0000  0.0000  0.0000 </r>
       </set>
       <set comment="band 13">
        <r>  0.0000  0.0000  0.0000  0.0000  0.0002  0.0001  0.0000  0.0000  0.0000 </r>
        <r>  0.0000  0.0005  0.0028  0.0009  0.0000  0.0000  0.2963  0.0000  0.0014 </r>
        <r>  0.0007  0.0000  0.3531  0.0000  0.0000  0.0000  0.0000  0.0000  0.0000 </r>
        <r>  0.0001  0.0685  0.0000  0.0000  0.0000  0.0000  0.0000  0.0000  0.0000 </r>
        <r>  0.0002  0.0000  0.0000  0.1106  0.0000  0.0000  0.0000  0.0000  0.0000 </r>
       </set>
       <set comment="band 14">
        <r>  0.0000  0.0002  0.0002  0.0002  0.0005  0.0005  0.0000  0.0005  0.0000 </r>
        <r>  0.1540  0.0016  0.0016  0.0016  0.0003  0.0003  0.0000  0.0003  0.0000 </r>
        <r>  0.0009  0.0007  0.1776  0.0007  0.0000  0.0000  0.0000  0.0000  0.0000 </r>
        <r>  0.0009  0.1776  0.0007  0.0007  0.0000  0.0000  0.0000  0.0000  0.0000 </r>
        <r>  0.0009  0.0007  0.0007  0.1776  0.0000  0.0000  0.0000  0.0000  0.0000 </r>
       </set>
       <set comment="band 15">
        <r>  0.0048  0.0268  0.0268  0.0268  0.0018  0.0018  0.0000  0.0018  0.0000 </r>
        <r>  0.0015  0.0000  0.0000  0.0000  0.0406  0.0406  0.0000  0.0406  0.0000 </r>
        <r>  0.0000  0.0736  0.0019  0.0736  0.0000  0.0000  0.0000  0.0000  0.0000 </r>
        <r>  0.0000  0.0019  0.0736  0.0736  0.0000  0.0000  0.0000  0.0000  0.0000 </r>
        <r>  0.0000  0.0736  0.0736  0.0019  0.0000  0.0000  0.0000  0.0000  0.0000 </r>
       </set>
       <set comment="band 16">
        <r>  0.0000  0.0456  0.0001  0.0500  0.0000  0.0009  0.0000  0.0008  0.0021 </r>
        <r>  0.0000  0.0000  0.0000  0.0000  0.0001  0.0642  0.0000  0.0585  0.0000 </r>
        <r>  0.0000  0.1151  0.0000  0.1044  0.0000  0.0000  0.0000  0.0000  0.0000 </r>
        <r>  0.0000  0.0000  0.1217  0.0000  0.0000  0.0000  0.0000  0.0000  0.0000 </r>
        <r>  0.0000  0.0007  0.1117  0.0000  0.0000  0.0000  0.0000  0.0000  0.0000 </r>
       </set>
       <set comment="band 17">
        <r>  0.0000  0.0182  0.0637  0.0138  0.0012  0.0003  0.0021  0.0003  0.0000 </r>
        <r>  0.0000  0.0000  0.0000  0.0000  0.0817  0.0177  0.0000  0.0233  0.0000 </r>
        <r>  0.0000  0.0361  0.0000  0.0468  0.0000  0.0000  0.0000  0.0000  0.0000 </r>
        <r>  0.0000  0.0000  0.0294  0.1512  0.0000  0.0000  0.0000  0.0000  0.0000 </r>
        <r>  0.0000  0.1505  0.0395  0.0000  0.0000  0.0000  0.0000  0.0000  0.0000 </r>
       </set>
       <set comment="band 18">
        <r>  0.0000  0.0001  0.0003  0.0001  0.0060  0.0015  0.0013  0.0015  0.0000 </r>
        <r>  0.0000  0.0001  0.0005  0.0001  0.0001  0.0000  0.0001  0.0000  0.0000 </r>
        <r>  0.0008  0.1716  0.0002  0.1734  0.0000  0.0000  0.0000  0.0000  0.0000 </r>
        <r>  0.0002  0.0000  0.1825  0.0002  0.0000  0.0000  0.0000  0.0000  0.0000 </r>
        <r>  0.0002  0.0001  0.1842  0.0000  0.0000  0.0000  0.0000  0.0000  0.0000 </r>
       </set>
       <set comment="band 19">
        <r>  0.0000  0.0002  0.0000  0.0002  0.0000  0.0044  0.0000  0.0045  0.0013 </r>
        <r>  0.0000  0.0004  0.0000  0.0004  0.0000  0.0000  0.0000  0.0000  0.0001 </r>
        <r>  0.0000  0.0658  0.0000  0.0639  0.0000  0.0000  0.0000  0.0000  0.0000 </r>
        <r>  0.0006  0.0001  0.0549  0.2371  0.0000  0.0000  0.0000  0.0000  0.0000 </r>
        <r>  0.0006  0.2372  0.0531  0.0001  0.0000  0.0000  0.0000  0.0000  0.0000 </r>
       </set>
       <set comment="band 20">
        <r>  0.0000  0.0000  0.0000  0.0000  0.0000  0.0000  0.0000  0.0000  0.0000 </r>
        <r>  0.0000  0.0000  0.0000  0.0000  0.0000  0.0000  0.0000  0.0000  0.0000 </r>
        <r>  0.0000  0.1219  0.0000  0.1219  0.0000  0.0000  0.0000  0.0000  0.0000 </r>
        <r>  0.0000  0.0000  0.1219  0.1219  0.0000  0.0000  0.0000  0.0000  0.0000 </r>
        <r>  0.0000  0.1219  0.1219  0.0000  0.0000  0.0000  0.0000  0.0000  0.0000 </r>
       </set>
       <set comment="band 21">
        <r>  0.0010  0.0016  0.0016  0.0016  0.1057  0.1057  0.0000  0.1057  0.0000 </r>
        <r>  0.0002  0.0033  0.0033  0.0033  0.0646  0.0646  0.0000  0.0646  0.0000 </r>
        <r>  0.0124  0.0137  0.0013  0.0137  0.0000  0.0000  0.0000  0.0000  0.0000 </r>
        <r>  0.0124  0.0013  0.0137  0.0137  0.0000  0.0000  0.0000  0.0000  0.0000 </r>
        <r>  0.0124  0.0137  0.0137  0.0013  0.0000  0.0000  0.0000  0.0000  0.0000 </r>
       </set>
       <set comment="band 22">
        <r>  0.0000  0.0007  0.0000  0.0007  0.0003  0.1880  0.0000  0.1738  0.0069 </r>
        <r>  0.0000  0.0045  0.0000  0.0049  0.0001  0.0799  0.0000  0.0738  0.0009 </r>
        <r>  0.0000  0.0063  0.0000  0.0049  0.0000  0.0000  0.0000  0.0000  0.0000 </r>
        <r>  0.0183  0.0002  0.0231  0.0053  0.0000  0.0000  0.0000  0.0000  0.0000 </r>
        <r>  0.0198  0.0067  0.0231  0.0003  0.0000  0.0000  0.0000  0.0000  0.0000 </r>
       </set>
       <set comment="band 23">
        <r>  0.0000  0.0003  0.0010  0.0002  0.2411  0.0534  0.0069  0.0676  0.0000 </r>
        <r>  0.0000  0.0018  0.0063  0.0014  0.1024  0.0227  0.0009  0.0287  0.0000 </r>
        <r>  0.0254  0.0169  0.0003  0.0182  0.0000  0.0000  0.0000  0.0000  0.0000 </r>
        <r>  0.0071  0.0001  0.0000  0.0178  0.0000  0.0000  0.0000  0.0000  0.0000 </r>
        <r>  0.0056  0.0164  0.0000  0.0001  0.0000  0.0000  0.0000  0.0000  0.0000 </r>
       </set>
       <set comment="band 24">
        <r>  0.0000  0.0000  0.0001  0.0000  0.0849  0.0305  0.0029  0.0168  0.0001 </r>
        <r>  0.0000  0.0003  0.0014  0.0005  0.3511  0.1260  0.0003  0.0694  0.0000 </r>
        <r>  0.0079  0.0068  0.0001  0.0026  0.0000  0.0000  0.0000  0.0000  0.0000 </r>
        <r>  0.0016  0.0000  0.0242  0.0407  0.0000  0.0000  0.0000  0.0000  0.0000 </r>
        <r>  0.0028  0.0372  0.0166  0.0000  0.0000  0.0000  0.0000  0.0000  0.0000 </r>
       </set>
      </set>
     </set>
    </set>
   </array>
  </projected>
 </calculation>
 <structure name="finalpos" >
  <crystal>
   <varray name="basis" >
    <v>       4.23652709       0.00000000       0.00000000 </v>
    <v>       0.00000000       4.23652709       0.00000000 </v>
    <v>       0.00000000       0.00000000       4.23652709 </v>
   </varray>
   <i name="volume">     76.03787346 </i>
   <varray name="rec_basis" >
    <v>       0.23604239      -0.00000000      -0.00000000 </v>
    <v>      -0.00000000       0.23604239      -0.00000000 </v>
    <v>      -0.00000000      -0.00000000       0.23604239 </v>
   </varray>
  </crystal>
  <varray name="positions" >
   <v>       0.00000000       0.00000000       0.00000000 </v>
   <v>       0.50000000       0.50000000       0.50000000 </v>
   <v>       0.50000000       0.50000000       0.00000000 </v>
   <v>       0.50000000       0.00000000       0.50000000 </v>
   <v>       0.00000000       0.50000000       0.50000000 </v>
  </varray>
 </structure>
</modeling>
