103
Lattice="13.791603039053763 -1.1704809832993197e-07 6.703336656169091e-07 6.895801418160254 11.94387930607876 1.6811462701697e-06 0.0 0.0 37.15135978955718" Properties=species:S:1:pos:R:3:tags:I:1:initial_magmoms:R:1:forces:R:3 energy=-593.3019409179688 free_energy=-593.3019409179688 stress="0.009231375603892247 -2.0153505414676204e-05 -0.00013031027518707258 -2.0153505414676204e-05 0.00930278094185796 -9.60042035510512e-05 -0.00013031027518707258 -9.60042035510512e-05 0.001290866196766814" pbc="T T T"
Pt       0.00000004       0.00000003       0.00000000        0       0.00000000      -0.00024266      -0.00249734       0.12997827
Pt       2.75832052       0.00000002       0.00000029        0       0.00000000       0.00105680       0.00130997       0.14957061
Pt       5.51664114      -0.00000007       0.00000030        0       0.00000000       0.00423107      -0.00186667       0.13460237
Pt       8.27496177      -0.00000001       0.00000044        0       0.00000000       0.00079549       0.00007472       0.13293558
Pt      11.03328250      -0.00000006       0.00000064        0       0.00000000       0.00361490       0.00114320       0.13305172
Pt       1.37916020       2.38877583       0.00000036        0       0.00000000       0.00356689       0.00282302       0.13072476
Pt       4.13748100       2.38877577       0.00000041        0       0.00000000      -0.00031414       0.00454700       0.13831803
Pt       6.89580149       2.38877583       0.00000074        0       0.00000000       0.00256984       0.00100183       0.12846768
Pt       9.65412211       2.38877585       0.00000086        0       0.00000000       0.00064507       0.00122004       0.13298023
Pt      12.41244274       2.38877574       0.00000096        0       0.00000000       0.00300205       0.00154940       0.13244766
Pt       2.75832046       4.77755174       0.00000071        0       0.00000000       0.00320961       0.00734891       0.12472853
Pt       5.51664125       4.77755168       0.00000096        0       0.00000000      -0.00020839      -0.00021552       0.13525867
Pt       8.27496176       4.77755177       0.00000087        0       0.00000000       0.00159581       0.00132344       0.13126117
Pt      11.03328240       4.77755159       0.00000113        0       0.00000000       0.00193052       0.00147399       0.13140225
Pt      13.79160305       4.77755159       0.00000129        0       0.00000000       0.00264107      -0.00006480       0.13236672
Pt       4.13748079       7.16632756       0.00000111        0       0.00000000       0.00213452       0.00451428       0.12845016
Pt       6.89580146       7.16632759       0.00000109        0       0.00000000       0.00247308       0.00242214       0.13431364
Pt       9.65412208       7.16632755       0.00000130        0       0.00000000       0.00173777       0.00180261       0.13127950
Pt      12.41244264       7.16632749       0.00000147        0       0.00000000       0.00080190       0.00335389       0.13348690
Pt      15.17076330       7.16632753       0.00000168        0       0.00000000       0.00270969       0.00108760       0.13358116
Pt       5.51664133       9.55510348       0.00000140        0       0.00000000      -0.00319181      -0.00110237       0.12207144
Pt       8.27496170       9.55510347       0.00000156        0       0.00000000      -0.00107065       0.00283161       0.13202047
Pt      11.03328233       9.55510332       0.00000163        0       0.00000000       0.00451163       0.00179514       0.13019797
Pt      13.79160294       9.55510332       0.00000180        0       0.00000000       0.00680539      -0.00009204       0.12565678
Pt      16.54992351       9.55510324       0.00000197        0       0.00000000       0.00398902       0.00044193       0.12897316
Pt       1.37916046       0.79625891       2.38854322        1       0.00000000       0.04173578      -0.02638586      -0.06614813
Pt       4.13748118       0.79625904       2.38854321        1       0.00000000      -0.05131985      -0.01730537      -0.04275035
Pt       6.89580177       0.79625874       2.38854312        1       0.00000000      -0.01856200      -0.01343406      -0.13802081
Pt       9.65412216       0.79625869       2.38854340        1       0.00000000      -0.01358471      -0.00651898      -0.14515889
Pt      12.41244283       0.79625878       2.38854371        1       0.00000000      -0.00703991      -0.01006527      -0.15617333
Pt       2.75832072       3.18503486       2.38854320        1       0.00000000       0.01085464      -0.03961600      -0.10875665
Pt       5.51664121       3.18503462       2.38854355        1       0.00000000      -0.03091215      -0.00924895      -0.12782009
Pt       8.27496190       3.18503470       2.38854341        1       0.00000000      -0.01006770      -0.00969893      -0.14370964
Pt      11.03328255       3.18503481       2.38854380        1       0.00000000      -0.00858367      -0.00799429      -0.14219621
Pt      13.79160321       3.18503467       2.38854404        1       0.00000000      -0.00806143      -0.00872028      -0.16385964
Pt       4.13748100       5.57381065       2.38854369        1       0.00000000      -0.01261183      -0.02408628      -0.13275672
Pt       6.89580173       5.57381054       2.38854381        1       0.00000000      -0.01273862      -0.00695436      -0.15019387
Pt       9.65412207       5.57381056       2.38854394        1       0.00000000      -0.00948217      -0.00614017      -0.13832778
Pt      12.41244279       5.57381062       2.38854397        1       0.00000000      -0.00874890      -0.00673016      -0.14526978
Pt      15.17076346       5.57381055       2.38854403        1       0.00000000      -0.00170011      -0.00982201      -0.14565127
Pt       5.51664151       7.96258644       2.38854405        1       0.00000000      -0.01094237      -0.00714610      -0.14075263
Pt       8.27496191       7.96258639       2.38854430        1       0.00000000      -0.01175954      -0.00694176      -0.16322230
Pt      11.03328242       7.96258650       2.38854453        1       0.00000000      -0.00581594      -0.00412544      -0.15746951
Pt      13.79160307       7.96258652       2.38854447        1       0.00000000      -0.01113134       0.00136097      -0.14310914
Pt      16.54992363       7.96258639       2.38854479        1       0.00000000      -0.01020933      -0.00861297      -0.14074555
Pt       6.89580146      10.35136231       2.38854445        1       0.00000000       0.01470143       0.00958535      -0.13999617
Pt       9.65412211      10.35136230       2.38854437        1       0.00000000      -0.00801910       0.04630178      -0.07470178
Pt      12.41244281      10.35136234       2.38854469        1       0.00000000      -0.02626273       0.01579188      -0.12652907
Pt      15.17076345      10.35136224       2.38854446        1       0.00000000      -0.02998712       0.00245635      -0.12194297
Pt      17.92908397      10.35136222       2.38854460        1       0.00000000      -0.00750473      -0.00744433      -0.13962190
Pt      -0.01705128       1.58464001       4.72575180        2       0.00000000       0.00219066       0.00077652       0.00020145
Pt       2.74631820       1.56667903       4.77687690        2       0.00000000       0.00194538       0.00093558      -0.00036338
Pt       5.50183819       1.59010396       4.73763834        2       0.00000000       0.00266740       0.00107224      -0.00197022
Pt       8.26238772       1.58253705       4.73114049        2       0.00000000       0.00243531       0.00050828      -0.00001693
Pt      11.01871184       1.58112595       4.73090602        2       0.00000000       0.00220801       0.00058169      -0.00000399
Pt       1.36450814       3.97079781       4.72526077        2       0.00000000       0.00181046       0.00071786       0.00028205
Pt       4.12054548       3.95981152       4.74631168        2       0.00000000       0.00195024       0.00214786      -0.00108589
Pt       6.88704196       3.97382401       4.72900800        2       0.00000000       0.00200063       0.00112912       0.00025304
Pt       9.64282332       3.97125312       4.73223235        2       0.00000000       0.00171616       0.00059627       0.00003353
Pt      12.39842478       3.97301733       4.73129100        2       0.00000000       0.00164436       0.00063219      -0.00007930
Pt       2.74632570       6.35868309       4.73057515        2       0.00000000       0.00162136       0.00138669      -0.00013918
Pt       5.50124757       6.35728409       4.72959485        2       0.00000000       0.00229910       0.00179831      -0.00009197
Pt       8.26122864       6.35880171       4.73157448        2       0.00000000       0.00207211       0.00094113      -0.00012119
Pt      11.02207308       6.35914309       4.73148167        2       0.00000000       0.00173425       0.00069693      -0.00021000
Pt      13.78020412       6.36221171       4.72980555        2       0.00000000       0.00156002       0.00058712      -0.00006449
Pt       4.12301405       8.74737913       4.73055013        2       0.00000000       0.00236808       0.00093898       0.00004950
Pt       6.88132909       8.74988016       4.72644701        2       0.00000000       0.00277969       0.00137417       0.00014468
Pt       9.64072833       8.74215421       4.72470516        2       0.00000000       0.00219017       0.00112281       0.00015940
Pt      12.39909783       8.75158822       4.72828569        2       0.00000000       0.00178967       0.00087340       0.00006218
Pt      15.15797745       8.75033559       4.73057956        2       0.00000000       0.00206159       0.00044011      -0.00007427
Pt       5.50532869      11.13562657       4.72783481        2       0.00000000       0.00280790       0.00091107       0.00008264
Pt       8.27524898      11.14541135       4.76545237        2       0.00000000       0.00270727       0.00118678       0.00185300
Pt      11.00190318      11.14364721       4.76626614        2       0.00000000       0.00195958       0.00107701       0.00088448
Pt      13.76848523      11.14138630       4.73904434        2       0.00000000       0.00277573       0.00015187      -0.00105201
Pt      16.53491618      11.13636477       4.72950334        2       0.00000000       0.00265604       0.00048290      -0.00015064
Pt      -0.04451002      -0.01579813       7.07516871        3       0.00000000       0.00492754       0.00184839       0.00094137
Pt       2.73473786      -0.02758180       7.21272891        3       0.00000000       0.00671739       0.00359081       0.00751412
Pt       5.52196566      -0.01831708       7.08497266        3       0.00000000       0.00596537       0.00167668      -0.00294092
Pt       8.26672189      -0.01781516       7.09149309        3       0.00000000       0.00438236       0.00087917      -0.00009972
Pt      11.00464430      -0.01899334       7.08963602        3       0.00000000       0.00435611       0.00121194      -0.00025129
Pt       1.33561066       2.39338777       7.07230113        3       0.00000000       0.00408605       0.00131533       0.00039980
Pt       4.13150608       2.36199479       7.12217693        3       0.00000000       0.00509983       0.00310786      -0.00570107
Pt       6.88642005       2.37233733       7.08756766        3       0.00000000       0.00482431       0.00158985      -0.00023887
Pt       9.63603720       2.37246946       7.09150759        3       0.00000000       0.00419229       0.00119980       0.00009885
Pt      12.38547279       2.37351491       7.08846137        3       0.00000000       0.00390005       0.00121861      -0.00009024
Pt       2.73331402       4.76085538       7.08538737        3       0.00000000       0.00343101       0.00217829      -0.00085589
Pt       5.50043107       4.76022028       7.08698248        3       0.00000000       0.00411748       0.00279639      -0.00052109
Pt       8.25439488       4.75757344       7.09170613        3       0.00000000       0.00373093       0.00180928       0.00006717
Pt      11.01099562       4.75990414       7.09207216        3       0.00000000       0.00327638       0.00154025       0.00003707
Pt      13.76648230       4.76725355       7.08932120        3       0.00000000       0.00312661       0.00103950       0.00003514
Pt       4.11548702       7.14484350       7.08921810        3       0.00000000       0.00348832       0.00148477       0.00043428
Pt       6.86939900       7.13859771       7.08902355        3       0.00000000       0.00403858       0.00262203       0.00003028
Pt       9.63286831       7.14207254       7.08961609        3       0.00000000       0.00350138       0.00199298      -0.00023180
Pt      12.39560615       7.14048083       7.09052397        3       0.00000000       0.00311757       0.00135985      -0.00023314
Pt      15.15105842       7.14922385       7.09042239        3       0.00000000       0.00304271       0.00133487       0.00020289
Pt       5.49160236       9.53357342       7.08684588        3       0.00000000       0.00402851       0.00169021      -0.00049856
Pt       8.24271014       9.51044428       7.07042974        3       0.00000000       0.00451062       0.00272360       0.00099075
Pt      11.02078338       9.50994433       7.07642264        3       0.00000000       0.00378489       0.00229479       0.00039253
Pt      13.77518766       9.53106525       7.08924156        3       0.00000000       0.00381198       0.00120650      -0.00031409
Pt      16.53024021       9.53491275       7.09053243        3       0.00000000       0.00377062       0.00106023      -0.00001490
O        2.68363241      -0.07924536       9.20181580        0       0.00000000       0.01758048       0.01348835       0.00538999
O        3.55251470       0.82758185       9.90423679        0       0.00000000       0.02636380       0.02637851      -0.01225647
H        3.96798290       1.36688965       9.15686961        0       0.00000000      -0.00236546       0.01756348       0.00588981
