65
Lattice="11.033086113260774 5.600493888326504e-08 2.5686178914223706e-08 5.516543105132088 9.554933067924482 1.9872236184885125e-07 0.0 0.0 37.15231387033118" Properties=species:S:1:pos:R:3:tags:I:1:initial_magmoms:R:1:forces:R:3 energy=-374.5321960449219 free_energy=-374.5321960449219 stress="0.009142055873547739 1.5031748330943844e-06 8.358319191959227e-06 1.5031748330943844e-06 0.00918739728473565 -2.566055509841812e-05 8.358319191959227e-06 -2.566055509841812e-05 0.0014778745923803482" pbc="T T T"
Pt      -0.00000001       0.00000000       0.00000000        0       0.00000000      -0.00147534      -0.00109090       0.14302331
Pt       2.75827155       0.00000002       0.00000007        0       0.00000000       0.00140928      -0.00112634       0.14275840
Pt       5.51654309       0.00000006       0.00000007        0       0.00000000      -0.00028440      -0.00236713       0.13847521
Pt       8.27481455       0.00000002       0.00000007        0       0.00000000       0.00010819      -0.00243106       0.13838503
Pt       1.37913578       2.38873328       0.00000009        0       0.00000000      -0.00005984       0.00193059       0.13768467
Pt       4.13740732       2.38873326       0.00000010        0       0.00000000      -0.00053631       0.00179469       0.12970117
Pt       6.89567885       2.38873330       0.00000010        0       0.00000000      -0.00001763       0.00010772       0.13028878
Pt       9.65395039       2.38873333       0.00000011        0       0.00000000       0.00051184       0.00177467       0.12973776
Pt       2.75827157       4.77746655       0.00000018        0       0.00000000      -0.00223948       0.00270162       0.13092181
Pt       5.51654311       4.77746655       0.00000018        0       0.00000000      -0.00121070       0.00049216       0.13363609
Pt       8.27481459       4.77746656       0.00000016        0       0.00000000       0.00108248       0.00048316       0.13366473
Pt      11.03308612       4.77746666       0.00000025        0       0.00000000       0.00203183       0.00273030       0.13072646
Pt       4.13740734       7.16619989       0.00000032        0       0.00000000      -0.00325407       0.00040736       0.13445634
Pt       6.89567883       7.16619981       0.00000025        0       0.00000000      -0.00004726      -0.00113886       0.13003892
Pt       9.65395036       7.16619988       0.00000022        0       0.00000000       0.00303118       0.00038466       0.13429180
Pt      12.41222192       7.16619985       0.00000023        0       0.00000000      -0.00014014      -0.00248858       0.11501640
Pt       1.37913581       0.79624445       2.38855938        1       0.00000000      -0.00029365      -0.02616392      -0.05095138
Pt       4.13740731       0.79624445       2.38855951        1       0.00000000      -0.02940257      -0.02922626      -0.09592204
Pt       6.89567888       0.79624443       2.38855941        1       0.00000000       0.00023684      -0.01189217      -0.15768544
Pt       9.65395033       0.79624446       2.38855954        1       0.00000000       0.03050618      -0.02893548      -0.09467240
Pt       2.75827161       3.18497767       2.38855947        1       0.00000000      -0.01157052      -0.00094608      -0.14806958
Pt       5.51654314       3.18497767       2.38855952        1       0.00000000      -0.00726679      -0.00214421      -0.15323302
Pt       8.27481457       3.18497770       2.38855940        1       0.00000000       0.00725382      -0.00206234      -0.15342501
Pt      11.03308614       3.18497759       2.38855939        1       0.00000000       0.01164105      -0.00158553      -0.14714649
Pt       4.13740736       5.57371086       2.38855937        1       0.00000000       0.00123338       0.00689904      -0.14114690
Pt       6.89567888       5.57371105       2.38855956        1       0.00000000       0.00024283       0.01653303      -0.15355948
Pt       9.65395045       5.57371094       2.38855956        1       0.00000000      -0.00094528       0.00668039      -0.14102362
Pt      12.41222194       5.57371108       2.38855958        1       0.00000000       0.00035447      -0.01462783      -0.10878916
Pt       5.51654310       7.96244423       2.38855960        1       0.00000000      -0.00815114       0.03282313      -0.08948015
Pt       8.27481475       7.96244428       2.38855962        1       0.00000000       0.00860442       0.03251129      -0.08959290
Pt      11.03308616       7.96244430       2.38855961        1       0.00000000      -0.01088296       0.00671056      -0.13159719
Pt      13.79135772       7.96244428       2.38855965        1       0.00000000       0.01217392       0.00697345      -0.13107230
Pt      -0.00457944       1.58313376       4.74795126        2       0.00000000      -0.00140177       0.00177153      -0.00445299
Pt       2.76404321       1.58314297       4.74739059        2       0.00000000       0.00100371       0.00202476      -0.00224678
Pt       5.52171609       1.59359025       4.72716364        2       0.00000000       0.00015887      -0.00045185      -0.00612901
Pt       8.27054027       1.59362317       4.72715293        2       0.00000000       0.00150965      -0.00090806      -0.00473927
Pt       1.37937754       3.97005961       4.74034443        2       0.00000000       0.00113415       0.00336273       0.00322389
Pt       4.13721169       3.98083852       4.72879859        2       0.00000000      -0.00347300      -0.00440700       0.00064057
Pt       6.89573965       3.98095445       4.72807190        2       0.00000000       0.00168548      -0.00433741       0.00599721
Pt       9.65445792       3.98050907       4.72879523        2       0.00000000       0.00644368      -0.00332634       0.00085868
Pt       2.75917136       6.37087314       4.72804455        2       0.00000000       0.00061418       0.00145994      -0.00239047
Pt       5.51906225       6.36930018       4.73221861        2       0.00000000       0.00003434      -0.00541993      -0.00643875
Pt       8.27313658       6.36906911       4.73224891        2       0.00000000       0.00108695      -0.00530266      -0.00716825
Pt      11.03326573       6.37053485       4.72791838        2       0.00000000       0.00014612       0.00262163      -0.00199783
Pt       4.14869029       8.76550997       4.75960530        2       0.00000000      -0.00427778      -0.00845518      -0.00811666
Pt       6.89635473       8.76301110       4.76143992        2       0.00000000      -0.00035807       0.00599012       0.02681290
Pt       9.64424341       8.76517720       4.75930068        2       0.00000000       0.00334069      -0.00740180      -0.00816669
Pt      12.41313701       8.75516100       4.72869009        2       0.00000000      -0.00111769       0.00298181      -0.00060004
Pt       0.01198091      -0.00465784       7.17960967        3       0.00000000      -0.02905244       0.00275242      -0.02607688
Pt       2.74946311      -0.00443509       7.17886405        3       0.00000000       0.03531918       0.00128220      -0.02603863
Pt       5.52013166       0.00139371       7.08200587        3       0.00000000      -0.00092932       0.00050027      -0.00166926
Pt       8.27494177       0.00153085       7.08281937        3       0.00000000      -0.00275441      -0.00019977      -0.00355828
Pt       1.38067712       2.39561349       7.08119842        3       0.00000000      -0.00103636      -0.01036182      -0.00475267
Pt       4.14914494       2.39210067       7.08500622        3       0.00000000      -0.00392168      -0.00047178      -0.00049743
Pt       6.89714693       2.39060930       7.09034468        3       0.00000000      -0.00096718      -0.00546376      -0.00157326
Pt       9.64519136       2.39189763       7.08548931        3       0.00000000       0.00212850      -0.00098400      -0.00136361
Pt       2.76043339       4.77694615       7.08869723        3       0.00000000      -0.00243374       0.00253387      -0.00490293
Pt       5.51883508       4.77536339       7.08721948        3       0.00000000       0.00556282      -0.00068399      -0.00248173
Pt       8.27447785       4.77474373       7.08718505        3       0.00000000      -0.00391641       0.00207005      -0.00231171
Pt      11.03291190       4.77636848       7.08874897        3       0.00000000       0.00363144       0.00514517      -0.00532696
Pt       4.12699020       7.15552533       7.08806766        3       0.00000000       0.00508449      -0.00023323       0.00015575
Pt       6.89724496       7.15797133       7.08737617        3       0.00000000      -0.00124381       0.00539963      -0.01574257
Pt       9.66741437       7.15525776       7.08738090        3       0.00000000      -0.00753379      -0.00045620       0.00201774
Pt      12.41361243       7.16190596       7.08635848        3       0.00000000      -0.00036587       0.00083109      -0.00193885
H        1.38406765       0.04984101       8.28324956        0       0.00000000      -0.00674453       0.02442650      -0.03446510
