  36  36   1   0
  0.2571354E+02  0.5536700E-09  0.5747300E-09  0.2909039E-08  0.1500000E-15
  1.000000000000000E-004
  CAR 
 unknown system                          
      6.69825856    -46.20763974  301      0.97318091      1.00000000
    -46.208  0.0000E+00  0.0000E+00  0.0000E+00  0.0000E+00
    -46.031  0.0000E+00  0.0000E+00  0.0000E+00  0.0000E+00
    -45.855  0.0000E+00  0.0000E+00  0.0000E+00  0.0000E+00
    -45.679  0.0000E+00  0.0000E+00  0.0000E+00  0.0000E+00
    -45.502  0.0000E+00  0.0000E+00  0.0000E+00  0.0000E+00
    -45.326  0.0000E+00  0.0000E+00  0.0000E+00  0.0000E+00
    -45.150  0.0000E+00  0.0000E+00  0.0000E+00  0.0000E+00
    -44.973  0.1889E-15  0.6295E-16  0.3331E-16  0.1110E-16
    -44.797  0.3890E-11  0.1117E-11  0.6860E-12  0.1969E-12
    -44.620  0.1478E-07  0.4131E-08  0.2607E-08  0.7287E-09
    -44.444  0.1263E-04  0.3430E-05  0.2230E-05  0.6057E-06
    -44.268  0.2496E-02  0.6622E-03  0.4424E-03  0.1174E-03
    -44.091  0.1188E+00  0.3149E-01  0.2140E-01  0.5672E-02
    -43.915  0.1448E+01  0.4021E+00  0.2768E+00  0.7658E-01
    -43.739  0.4939E+01  0.1521E+01  0.1148E+01  0.3448E+00
    -43.562  0.5476E+01  0.1866E+01  0.2114E+01  0.6740E+00
    -43.386  0.2702E+01  0.1216E+01  0.2590E+01  0.8885E+00
    -43.210  0.1540E+01  0.1920E+01  0.2862E+01  0.1227E+01
    -43.033  0.1496E+01  0.2213E+01  0.3125E+01  0.1617E+01
    -42.857  0.1276E+01  0.9142E+00  0.3350E+01  0.1779E+01
    -42.681  0.1005E+01  0.1173E+00  0.3528E+01  0.1799E+01
    -42.504  0.3676E+00  0.4079E-02  0.3593E+01  0.1800E+01
    -42.328  0.4126E-01  0.3475E-04  0.3600E+01  0.1800E+01
    -42.152  0.1221E-02  0.6851E-07  0.3600E+01  0.1800E+01
    -41.975  0.9739E-05  0.4479E-06  0.3600E+01  0.1800E+01
    -41.799  0.2640E-03  0.1593E-03  0.3600E+01  0.1800E+01
    -41.622  0.1606E-01  0.1319E-01  0.3603E+01  0.1802E+01
    -41.446  0.2444E+00  0.2728E+00  0.3646E+01  0.1850E+01
    -41.270  0.1022E+01  0.1657E+01  0.3826E+01  0.2143E+01
    -41.093  0.1355E+01  0.3960E+01  0.4065E+01  0.2841E+01
    -40.917  0.6503E+00  0.4686E+01  0.4180E+01  0.3667E+01
    -40.741  0.1099E+00  0.2508E+01  0.4199E+01  0.4110E+01
    -40.564  0.2329E-01  0.4884E+00  0.4203E+01  0.4196E+01
    -40.388  0.1981E+00  0.1198E+00  0.4238E+01  0.4217E+01
    -40.212  0.6202E+00  0.4825E+00  0.4348E+01  0.4302E+01
    -40.035  0.8031E+00  0.8613E+00  0.4489E+01  0.4454E+01
    -39.859  0.6914E+00  0.7299E+00  0.4611E+01  0.4583E+01
    -39.683  0.6268E+00  0.5883E+00  0.4722E+01  0.4686E+01
    -39.506  0.3743E+00  0.4918E+00  0.4788E+01  0.4773E+01
    -39.330  0.6727E-01  0.1415E+00  0.4799E+01  0.4798E+01
    -39.154  0.2993E-02  0.1030E-01  0.4800E+01  0.4800E+01
    -38.977  0.3112E-04  0.1778E-03  0.4800E+01  0.4800E+01
    -38.801  0.7312E-07  0.7001E-06  0.4800E+01  0.4800E+01
    -38.624  0.3798E-10  0.6134E-09  0.4800E+01  0.4800E+01
    -38.448  0.4281E-14  0.1177E-12  0.4800E+01  0.4800E+01
    -38.272  0.0000E+00  0.0000E+00  0.4800E+01  0.4800E+01
    -38.095  0.0000E+00  0.0000E+00  0.4800E+01  0.4800E+01
    -37.919  0.0000E+00  0.0000E+00  0.4800E+01  0.4800E+01
    -37.743  0.0000E+00  0.0000E+00  0.4800E+01  0.4800E+01
    -37.566  0.0000E+00  0.0000E+00  0.4800E+01  0.4800E+01
    -37.390  0.0000E+00  0.0000E+00  0.4800E+01  0.4800E+01
    -37.214  0.0000E+00  0.0000E+00  0.4800E+01  0.4800E+01
    -37.037  0.0000E+00  0.0000E+00  0.4800E+01  0.4800E+01
    -36.861  0.0000E+00  0.0000E+00  0.4800E+01  0.4800E+01
    -36.685  0.0000E+00  0.0000E+00  0.4800E+01  0.4800E+01
    -36.508  0.0000E+00  0.0000E+00  0.4800E+01  0.4800E+01
    -36.332  0.0000E+00  0.0000E+00  0.4800E+01  0.4800E+01
    -36.156  0.0000E+00  0.0000E+00  0.4800E+01  0.4800E+01
    -35.979  0.0000E+00  0.0000E+00  0.4800E+01  0.4800E+01
    -35.803  0.0000E+00  0.0000E+00  0.4800E+01  0.4800E+01
    -35.626  0.0000E+00  0.0000E+00  0.4800E+01  0.4800E+01
    -35.450  0.0000E+00  0.0000E+00  0.4800E+01  0.4800E+01
    -35.274  0.0000E+00  0.0000E+00  0.4800E+01  0.4800E+01
    -35.097  0.0000E+00  0.0000E+00  0.4800E+01  0.4800E+01
    -34.921  0.0000E+00  0.0000E+00  0.4800E+01  0.4800E+01
    -34.745  0.0000E+00  0.0000E+00  0.4800E+01  0.4800E+01
    -34.568  0.0000E+00  0.0000E+00  0.4800E+01  0.4800E+01
    -34.392  0.0000E+00  0.0000E+00  0.4800E+01  0.4800E+01
    -34.216  0.0000E+00  0.0000E+00  0.4800E+01  0.4800E+01
    -34.039  0.0000E+00  0.0000E+00  0.4800E+01  0.4800E+01
    -33.863  0.0000E+00  0.0000E+00  0.4800E+01  0.4800E+01
    -33.687  0.0000E+00  0.0000E+00  0.4800E+01  0.4800E+01
    -33.510  0.0000E+00  0.0000E+00  0.4800E+01  0.4800E+01
    -33.334  0.0000E+00  0.0000E+00  0.4800E+01  0.4800E+01
    -33.158  0.0000E+00  0.0000E+00  0.4800E+01  0.4800E+01
    -32.981  0.0000E+00  0.0000E+00  0.4800E+01  0.4800E+01
    -32.805  0.0000E+00  0.0000E+00  0.4800E+01  0.4800E+01
    -32.628  0.0000E+00  0.0000E+00  0.4800E+01  0.4800E+01
    -32.452  0.0000E+00  0.0000E+00  0.4800E+01  0.4800E+01
    -32.276  0.0000E+00  0.0000E+00  0.4800E+01  0.4800E+01
    -32.099  0.7391E-13  0.6919E-13  0.4800E+01  0.4800E+01
    -31.923  0.4180E-09  0.3952E-09  0.4800E+01  0.4800E+01
    -31.747  0.5206E-06  0.4975E-06  0.4800E+01  0.4800E+01
    -31.570  0.1464E-03  0.1414E-03  0.4800E+01  0.4800E+01
    -31.394  0.9699E-02  0.9460E-02  0.4802E+01  0.4802E+01
    -31.218  0.1632E+00  0.1605E+00  0.4831E+01  0.4830E+01
    -31.041  0.7938E+00  0.7853E+00  0.4970E+01  0.4968E+01
    -30.865  0.1439E+01  0.1426E+01  0.5224E+01  0.5220E+01
    -30.689  0.1375E+01  0.1376E+01  0.5467E+01  0.5463E+01
    -30.512  0.7935E+00  0.8037E+00  0.5607E+01  0.5604E+01
    -30.336  0.7937E+00  0.7875E+00  0.5747E+01  0.5743E+01
    -30.160  0.9715E+00  0.9766E+00  0.5918E+01  0.5916E+01
    -29.983  0.4127E+00  0.4239E+00  0.5991E+01  0.5990E+01
    -29.807  0.5070E-01  0.5328E-01  0.6000E+01  0.6000E+01
    -29.630  0.1641E-02  0.1767E-02  0.6000E+01  0.6000E+01
    -29.454  0.1288E-04  0.1423E-04  0.6000E+01  0.6000E+01
    -29.278  0.2323E-07  0.2635E-07  0.6000E+01  0.6000E+01
    -29.101  0.9314E-11  0.1085E-10  0.6000E+01  0.6000E+01
    -28.925  0.7555E-15  0.1007E-14  0.6000E+01  0.6000E+01
    -28.749  0.0000E+00  0.0000E+00  0.6000E+01  0.6000E+01
    -28.572  0.0000E+00  0.0000E+00  0.6000E+01  0.6000E+01
    -28.396  0.0000E+00  0.0000E+00  0.6000E+01  0.6000E+01
    -28.220  0.0000E+00  0.0000E+00  0.6000E+01  0.6000E+01
    -28.043  0.0000E+00  0.0000E+00  0.6000E+01  0.6000E+01
    -27.867  0.0000E+00  0.0000E+00  0.6000E+01  0.6000E+01
    -27.691  0.0000E+00  0.0000E+00  0.6000E+01  0.6000E+01
    -27.514  0.0000E+00  0.0000E+00  0.6000E+01  0.6000E+01
    -27.338  0.0000E+00  0.0000E+00  0.6000E+01  0.6000E+01
    -27.162  0.0000E+00  0.0000E+00  0.6000E+01  0.6000E+01
    -26.985  0.0000E+00  0.0000E+00  0.6000E+01  0.6000E+01
    -26.809  0.0000E+00  0.0000E+00  0.6000E+01  0.6000E+01
    -26.632  0.0000E+00  0.0000E+00  0.6000E+01  0.6000E+01
    -26.456  0.0000E+00  0.0000E+00  0.6000E+01  0.6000E+01
    -26.280  0.0000E+00  0.0000E+00  0.6000E+01  0.6000E+01
    -26.103  0.0000E+00  0.0000E+00  0.6000E+01  0.6000E+01
    -25.927  0.0000E+00  0.0000E+00  0.6000E+01  0.6000E+01
    -25.751  0.0000E+00  0.0000E+00  0.6000E+01  0.6000E+01
    -25.574  0.0000E+00  0.0000E+00  0.6000E+01  0.6000E+01
    -25.398  0.0000E+00  0.0000E+00  0.6000E+01  0.6000E+01
    -25.222  0.0000E+00  0.0000E+00  0.6000E+01  0.6000E+01
    -25.045  0.0000E+00  0.0000E+00  0.6000E+01  0.6000E+01
    -24.869  0.0000E+00  0.0000E+00  0.6000E+01  0.6000E+01
    -24.693  0.0000E+00  0.0000E+00  0.6000E+01  0.6000E+01
    -24.516  0.1896E-12  0.4910E-12  0.6000E+01  0.6000E+01
    -24.340  0.9137E-09  0.2020E-08  0.6000E+01  0.6000E+01
    -24.164  0.9650E-06  0.1824E-05  0.6000E+01  0.6000E+01
    -23.987  0.2270E-03  0.3675E-03  0.6000E+01  0.6000E+01
    -23.811  0.1220E-01  0.1698E-01  0.6002E+01  0.6003E+01
    -23.634  0.1555E+00  0.1868E+00  0.6030E+01  0.6036E+01
    -23.458  0.4900E+00  0.5103E+00  0.6116E+01  0.6126E+01
    -23.282  0.3927E+00  0.3548E+00  0.6185E+01  0.6189E+01
    -23.105  0.7953E-01  0.6219E-01  0.6199E+01  0.6200E+01
    -22.929  0.3931E-02  0.2649E-02  0.6200E+01  0.6200E+01
    -22.753  0.4546E-04  0.2629E-04  0.6200E+01  0.6200E+01
    -22.576  0.1190E-06  0.5890E-07  0.6200E+01  0.6200E+01
    -22.400  0.6897E-10  0.2916E-10  0.6200E+01  0.6200E+01
    -22.224  0.8814E-14  0.3148E-14  0.6200E+01  0.6200E+01
    -22.047  0.0000E+00  0.0000E+00  0.6200E+01  0.6200E+01
    -21.871  0.0000E+00  0.0000E+00  0.6200E+01  0.6200E+01
    -21.695  0.0000E+00  0.0000E+00  0.6200E+01  0.6200E+01
    -21.518  0.0000E+00  0.0000E+00  0.6200E+01  0.6200E+01
    -21.342  0.0000E+00  0.0000E+00  0.6200E+01  0.6200E+01
    -21.166  0.0000E+00  0.0000E+00  0.6200E+01  0.6200E+01
    -20.989  0.0000E+00  0.0000E+00  0.6200E+01  0.6200E+01
    -20.813  0.0000E+00  0.0000E+00  0.6200E+01  0.6200E+01
    -20.636  0.0000E+00  0.0000E+00  0.6200E+01  0.6200E+01
    -20.460  0.0000E+00  0.0000E+00  0.6200E+01  0.6200E+01
    -20.284  0.0000E+00  0.0000E+00  0.6200E+01  0.6200E+01
    -20.107  0.0000E+00  0.0000E+00  0.6200E+01  0.6200E+01
    -19.931  0.0000E+00  0.0000E+00  0.6200E+01  0.6200E+01
    -19.755  0.0000E+00  0.0000E+00  0.6200E+01  0.6200E+01
    -19.578  0.3551E-13  0.2493E-13  0.6200E+01  0.6200E+01
    -19.402  0.2248E-09  0.1669E-09  0.6200E+01  0.6200E+01
    -19.226  0.3110E-06  0.2443E-06  0.6200E+01  0.6200E+01
    -19.049  0.9549E-04  0.7930E-04  0.6200E+01  0.6200E+01
    -18.873  0.6665E-02  0.5844E-02  0.6201E+01  0.6201E+01
    -18.697  0.1095E+00  0.1012E+00  0.6221E+01  0.6219E+01
    -18.520  0.4434E+00  0.4310E+00  0.6299E+01  0.6295E+01
    -18.344  0.5160E+00  0.5121E+00  0.6390E+01  0.6385E+01
    -18.168  0.7157E+00  0.6627E+00  0.6516E+01  0.6502E+01
    -17.991  0.1715E+01  0.1671E+01  0.6818E+01  0.6797E+01
    -17.815  0.2107E+01  0.2036E+01  0.7190E+01  0.7156E+01
    -17.638  0.2323E+01  0.2173E+01  0.7600E+01  0.7539E+01
    -17.462  0.2590E+01  0.2638E+01  0.8056E+01  0.8004E+01
    -17.286  0.2645E+01  0.2701E+01  0.8523E+01  0.8481E+01
    -17.109  0.2836E+01  0.2900E+01  0.9023E+01  0.8992E+01
    -16.933  0.2266E+01  0.2367E+01  0.9423E+01  0.9409E+01
    -16.757  0.9060E+00  0.9719E+00  0.9583E+01  0.9581E+01
    -16.580  0.3003E+00  0.3395E+00  0.9635E+01  0.9641E+01
    -16.404  0.5265E+00  0.6150E+00  0.9728E+01  0.9749E+01
    -16.228  0.5473E+00  0.9050E+00  0.9825E+01  0.9909E+01
    -16.051  0.8698E+00  0.1070E+01  0.9978E+01  0.1010E+02
    -15.875  0.9341E+00  0.5090E+00  0.1014E+02  0.1019E+02
    -15.699  0.2974E+00  0.6953E-01  0.1020E+02  0.1020E+02
    -15.522  0.2539E-01  0.2478E-02  0.1020E+02  0.1020E+02
    -15.346  0.6297E-03  0.9765E-04  0.1020E+02  0.1020E+02
    -15.170  0.7273E-02  0.6888E-02  0.1020E+02  0.1020E+02
    -14.993  0.1562E+00  0.1509E+00  0.1023E+02  0.1023E+02
    -14.817  0.9107E+00  0.8920E+00  0.1039E+02  0.1039E+02
    -14.640  0.1891E+01  0.1859E+01  0.1072E+02  0.1071E+02
    -14.464  0.2252E+01  0.2233E+01  0.1112E+02  0.1111E+02
    -14.288  0.2322E+01  0.2339E+01  0.1153E+02  0.1152E+02
    -14.111  0.2839E+01  0.2872E+01  0.1203E+02  0.1203E+02
    -13.935  0.3010E+01  0.3015E+01  0.1256E+02  0.1256E+02
    -13.759  0.2636E+01  0.2641E+01  0.1303E+02  0.1302E+02
    -13.582  0.1819E+01  0.1843E+01  0.1335E+02  0.1335E+02
    -13.406  0.1113E+01  0.1135E+01  0.1354E+02  0.1355E+02
    -13.230  0.1090E+01  0.1078E+01  0.1374E+02  0.1374E+02
    -13.053  0.7843E+00  0.7677E+00  0.1387E+02  0.1387E+02
    -12.877  0.5389E+00  0.5377E+00  0.1397E+02  0.1397E+02
    -12.701  0.1627E+00  0.1643E+00  0.1400E+02  0.1400E+02
    -12.524  0.1305E-01  0.1330E-01  0.1400E+02  0.1400E+02
    -12.348  0.2501E-03  0.2570E-03  0.1400E+02  0.1400E+02
    -12.172  0.1096E-05  0.1136E-05  0.1400E+02  0.1400E+02
    -11.995  0.1071E-08  0.1120E-08  0.1400E+02  0.1400E+02
    -11.819  0.2294E-12  0.2420E-12  0.1400E+02  0.1400E+02
    -11.642  0.0000E+00  0.0000E+00  0.1400E+02  0.1400E+02
    -11.466  0.0000E+00  0.0000E+00  0.1400E+02  0.1400E+02
    -11.290  0.0000E+00  0.0000E+00  0.1400E+02  0.1400E+02
    -11.113  0.0000E+00  0.0000E+00  0.1400E+02  0.1400E+02
    -10.937  0.0000E+00  0.0000E+00  0.1400E+02  0.1400E+02
    -10.761  0.0000E+00  0.0000E+00  0.1400E+02  0.1400E+02
    -10.584  0.0000E+00  0.0000E+00  0.1400E+02  0.1400E+02
    -10.408  0.0000E+00  0.0000E+00  0.1400E+02  0.1400E+02
    -10.232  0.0000E+00  0.0000E+00  0.1400E+02  0.1400E+02
    -10.055  0.0000E+00  0.0000E+00  0.1400E+02  0.1400E+02
     -9.879  0.0000E+00  0.0000E+00  0.1400E+02  0.1400E+02
     -9.703  0.0000E+00  0.0000E+00  0.1400E+02  0.1400E+02
     -9.526  0.0000E+00  0.0000E+00  0.1400E+02  0.1400E+02
     -9.350  0.0000E+00  0.0000E+00  0.1400E+02  0.1400E+02
     -9.174  0.0000E+00  0.0000E+00  0.1400E+02  0.1400E+02
     -8.997  0.0000E+00  0.0000E+00  0.1400E+02  0.1400E+02
     -8.821  0.0000E+00  0.0000E+00  0.1400E+02  0.1400E+02
     -8.644  0.0000E+00  0.0000E+00  0.1400E+02  0.1400E+02
     -8.468  0.0000E+00  0.0000E+00  0.1400E+02  0.1400E+02
     -8.292  0.0000E+00  0.0000E+00  0.1400E+02  0.1400E+02
     -8.115  0.0000E+00  0.0000E+00  0.1400E+02  0.1400E+02
     -7.939  0.0000E+00  0.0000E+00  0.1400E+02  0.1400E+02
     -7.763  0.0000E+00  0.0000E+00  0.1400E+02  0.1400E+02
     -7.586  0.0000E+00  0.0000E+00  0.1400E+02  0.1400E+02
     -7.410  0.6295E-16  0.1259E-15  0.1400E+02  0.1400E+02
     -7.234  0.7718E-12  0.2228E-11  0.1400E+02  0.1400E+02
     -7.057  0.2942E-08  0.7089E-08  0.1400E+02  0.1400E+02
     -6.881  0.2463E-05  0.4961E-05  0.1400E+02  0.1400E+02
     -6.705  0.4609E-03  0.7779E-03  0.1400E+02  0.1400E+02
     -6.528  0.1980E-01  0.2812E-01  0.1400E+02  0.1401E+02
     -6.352  0.2031E+00  0.2439E+00  0.1404E+02  0.1405E+02
     -6.176  0.5264E+00  0.5347E+00  0.1413E+02  0.1414E+02
     -5.999  0.4655E+00  0.4001E+00  0.1421E+02  0.1421E+02
     -5.823  0.5494E+00  0.5007E+00  0.1431E+02  0.1430E+02
     -5.646  0.7133E+00  0.7150E+00  0.1444E+02  0.1443E+02
     -5.470  0.9794E+00  0.1010E+01  0.1461E+02  0.1461E+02
     -5.294  0.1239E+01  0.9322E+00  0.1483E+02  0.1477E+02
     -5.117  0.1050E+01  0.6697E+00  0.1501E+02  0.1489E+02
     -4.941  0.9313E+00  0.9354E+00  0.1518E+02  0.1505E+02
     -4.765  0.1195E+01  0.1101E+01  0.1539E+02  0.1525E+02
     -4.588  0.1867E+01  0.1474E+01  0.1572E+02  0.1551E+02
     -4.412  0.2563E+01  0.2055E+01  0.1617E+02  0.1587E+02
     -4.236  0.2640E+01  0.2303E+01  0.1664E+02  0.1628E+02
     -4.059  0.3187E+01  0.2599E+01  0.1720E+02  0.1673E+02
     -3.883  0.3769E+01  0.3696E+01  0.1786E+02  0.1739E+02
     -3.707  0.4097E+01  0.3884E+01  0.1858E+02  0.1807E+02
     -3.530  0.3166E+01  0.3119E+01  0.1914E+02  0.1862E+02
     -3.354  0.2121E+01  0.3063E+01  0.1952E+02  0.1916E+02
     -3.178  0.2835E+01  0.3103E+01  0.2002E+02  0.1971E+02
     -3.001  0.3648E+01  0.3333E+01  0.2066E+02  0.2030E+02
     -2.825  0.3348E+01  0.3604E+01  0.2125E+02  0.2093E+02
     -2.648  0.2526E+01  0.2870E+01  0.2170E+02  0.2144E+02
     -2.472  0.1856E+01  0.1993E+01  0.2202E+02  0.2179E+02
     -2.296  0.2229E+01  0.2291E+01  0.2242E+02  0.2219E+02
     -2.119  0.2941E+01  0.3111E+01  0.2294E+02  0.2274E+02
     -1.943  0.3120E+01  0.3326E+01  0.2349E+02  0.2333E+02
     -1.767  0.3655E+01  0.3532E+01  0.2413E+02  0.2395E+02
     -1.590  0.3548E+01  0.3619E+01  0.2476E+02  0.2459E+02
     -1.414  0.2416E+01  0.2629E+01  0.2518E+02  0.2505E+02
     -1.238  0.2037E+01  0.2351E+01  0.2554E+02  0.2547E+02
     -1.061  0.1589E+01  0.1757E+01  0.2582E+02  0.2578E+02
     -0.885  0.1215E+01  0.1077E+01  0.2604E+02  0.2597E+02
     -0.709  0.1202E+01  0.1025E+01  0.2625E+02  0.2615E+02
     -0.532  0.1738E+01  0.9988E+00  0.2655E+02  0.2632E+02
     -0.356  0.2105E+01  0.1249E+01  0.2693E+02  0.2654E+02
     -0.180  0.1718E+01  0.1391E+01  0.2723E+02  0.2679E+02
     -0.003  0.1786E+01  0.1608E+01  0.2754E+02  0.2707E+02
      0.173  0.2323E+01  0.1956E+01  0.2795E+02  0.2742E+02
      0.350  0.3047E+01  0.1934E+01  0.2849E+02  0.2776E+02
      0.526  0.3168E+01  0.1927E+01  0.2905E+02  0.2810E+02
      0.702  0.2850E+01  0.1439E+01  0.2955E+02  0.2835E+02
      0.879  0.2517E+01  0.9310E+00  0.3000E+02  0.2852E+02
      1.055  0.1708E+01  0.1054E+01  0.3030E+02  0.2870E+02
      1.231  0.7834E+00  0.8072E+00  0.3043E+02  0.2885E+02
      1.408  0.1068E+01  0.8754E+00  0.3062E+02  0.2900E+02
      1.584  0.2096E+01  0.1243E+01  0.3099E+02  0.2922E+02
      1.760  0.2108E+01  0.1324E+01  0.3136E+02  0.2945E+02
      1.937  0.1323E+01  0.1031E+01  0.3160E+02  0.2963E+02
      2.113  0.8992E+00  0.9062E+00  0.3176E+02  0.2979E+02
      2.289  0.8647E+00  0.1175E+01  0.3191E+02  0.3000E+02
      2.466  0.1240E+01  0.1623E+01  0.3213E+02  0.3029E+02
      2.642  0.1245E+01  0.1928E+01  0.3235E+02  0.3063E+02
      2.818  0.1851E+01  0.2561E+01  0.3267E+02  0.3108E+02
      2.995  0.2514E+01  0.3472E+01  0.3312E+02  0.3169E+02
      3.171  0.2143E+01  0.3622E+01  0.3350E+02  0.3233E+02
      3.348  0.1715E+01  0.3406E+01  0.3380E+02  0.3293E+02
      3.524  0.1398E+01  0.3189E+01  0.3404E+02  0.3349E+02
      3.700  0.1624E+01  0.2737E+01  0.3433E+02  0.3398E+02
      3.877  0.3721E+01  0.3837E+01  0.3499E+02  0.3465E+02
      4.053  0.6478E+01  0.6431E+01  0.3613E+02  0.3579E+02
      4.229  0.6725E+01  0.7281E+01  0.3732E+02  0.3707E+02
      4.406  0.3296E+01  0.4236E+01  0.3790E+02  0.3782E+02
      4.582  0.5601E+00  0.9636E+00  0.3800E+02  0.3799E+02
      4.758  0.2733E-01  0.6875E-01  0.3800E+02  0.3800E+02
      4.935  0.3437E-03  0.1332E-02  0.3800E+02  0.3800E+02
      5.111  0.1045E-05  0.6408E-05  0.3800E+02  0.3800E+02
      5.287  0.7389E-09  0.7231E-08  0.3800E+02  0.3800E+02
      5.464  0.1182E-12  0.1850E-11  0.3800E+02  0.3800E+02
      5.640  0.0000E+00  0.0000E+00  0.3800E+02  0.3800E+02
      5.816  0.0000E+00  0.0000E+00  0.3800E+02  0.3800E+02
      5.993  0.0000E+00  0.0000E+00  0.3800E+02  0.3800E+02
      6.169  0.0000E+00  0.0000E+00  0.3800E+02  0.3800E+02
      6.346  0.0000E+00  0.0000E+00  0.3800E+02  0.3800E+02
      6.522  0.0000E+00  0.0000E+00  0.3800E+02  0.3800E+02
      6.698  0.0000E+00  0.0000E+00  0.3800E+02  0.3800E+02
      6.69825856    -46.20763974  301      0.97318091      1.00000000
    -46.208  0.0000E+00  0.0000E+00  0.0000E+00  0.0000E+00  0.0000E+00  0.0000E+00  0.0000E+00  0.0000E+00
    -46.031  0.0000E+00  0.0000E+00  0.0000E+00  0.0000E+00  0.0000E+00  0.0000E+00  0.0000E+00  0.0000E+00
    -45.855  0.0000E+00  0.0000E+00  0.0000E+00  0.0000E+00  0.0000E+00  0.0000E+00  0.0000E+00  0.0000E+00
    -45.679  0.0000E+00  0.0000E+00  0.0000E+00  0.0000E+00  0.0000E+00  0.0000E+00  0.0000E+00  0.0000E+00
    -45.502  0.0000E+00  0.0000E+00  0.0000E+00  0.0000E+00  0.0000E+00  0.0000E+00  0.0000E+00  0.0000E+00
    -45.326  0.0000E+00  0.0000E+00  0.0000E+00  0.0000E+00  0.0000E+00  0.0000E+00  0.0000E+00  0.0000E+00
    -45.150  0.0000E+00  0.0000E+00  0.0000E+00  0.0000E+00  0.0000E+00  0.0000E+00  0.0000E+00  0.0000E+00
    -44.973  0.6937E-27  0.8825E-29  0.7491E-24  0.4372E-23  0.8407E-25  0.8152E-26  0.0000E+00  0.0000E+00
    -44.797  0.8203E-21  0.2033E-24  0.3599E-19  0.7652E-19  0.3153E-20  0.1433E-21  0.0000E+00  0.0000E+00
    -44.620  0.6437E-17  0.1012E-20  0.2226E-15  0.2810E-15  0.1799E-16  0.5260E-18  0.0000E+00  0.0000E+00
    -44.444  0.1150E-13  0.1508E-17  0.3463E-12  0.2328E-12  0.2636E-13  0.4304E-15  0.0000E+00  0.0000E+00
    -44.268  0.4713E-11  0.1427E-14  0.1320E-09  0.6263E-10  0.9701E-11  0.8096E-13  0.0000E+00  0.0000E+00
    -44.091  0.4480E-09  0.2352E-11  0.1212E-07  0.5521E-07  0.8743E-09  0.4209E-11  0.0000E+00  0.0000E+00
    -43.915  0.1012E-07  0.1506E-08  0.2692E-06  0.3489E-04  0.1925E-07  0.4122E-09  0.0000E+00  0.0000E+00
    -43.739  0.5623E-07  0.2318E-06  0.1484E-05  0.5268E-02  0.1057E-06  0.5712E-07  0.0000E+00  0.0000E+00
    -43.562  0.7967E-07  0.8809E-05  0.2107E-05  0.1939E+00  0.1487E-06  0.2181E-05  0.0000E+00  0.0000E+00
    -43.386  0.3192E-07  0.8953E-04  0.1038E-05  0.1918E+01  0.5780E-07  0.2277E-04  0.0000E+00  0.0000E+00
    -43.210  0.1781E-07  0.2632E-03  0.1569E-05  0.5851E+01  0.3141E-07  0.7229E-04  0.0000E+00  0.0000E+00
    -43.033  0.2178E-07  0.2344E-03  0.2577E-05  0.6258E+01  0.5052E-07  0.7578E-04  0.0000E+00  0.0000E+00
    -42.857  0.8978E-08  0.6350E-04  0.1325E-05  0.2377E+01  0.2750E-07  0.2661E-04  0.0000E+00  0.0000E+00
    -42.681  0.1053E-08  0.5149E-05  0.1891E-06  0.2855E+00  0.4094E-08  0.2932E-05  0.0000E+00  0.0000E+00
    -42.504  0.3519E-10  0.1216E-06  0.6992E-08  0.9389E-02  0.1665E-09  0.9089E-07  0.0000E+00  0.0000E+00
    -42.328  0.4963E-12  0.7937E-09  0.6742E-10  0.7606E-04  0.2915E-11  0.7130E-09  0.0000E+00  0.0000E+00
    -42.152  0.7059E-14  0.1323E-11  0.2937E-12  0.1424E-06  0.4701E-13  0.1315E-11  0.0000E+00  0.0000E+00
    -41.975  0.4817E-16  0.4310E-14  0.2851E-13  0.5988E-10  0.4365E-15  0.9667E-14  0.0000E+00  0.0000E+00
    -41.799  0.6113E-15  0.1432E-11  0.6780E-11  0.1397E-09  0.3195E-13  0.3446E-11  0.0000E+00  0.0000E+00
    -41.622  0.4247E-13  0.1342E-09  0.3947E-09  0.1277E-07  0.1899E-11  0.3213E-09  0.0000E+00  0.0000E+00
    -41.446  0.8478E-12  0.3626E-08  0.5803E-08  0.3280E-06  0.2763E-10  0.8553E-08  0.0000E+00  0.0000E+00
    -41.270  0.5812E-11  0.3365E-07  0.2500E-07  0.2844E-05  0.1042E-09  0.7759E-07  0.0000E+00  0.0000E+00
    -41.093  0.1440E-10  0.1078E-06  0.5015E-07  0.8680E-05  0.1095E-09  0.2445E-06  0.0000E+00  0.0000E+00
    -40.917  0.1528E-09  0.1049E-06  0.9923E-05  0.8266E-05  0.3099E-09  0.2362E-06  0.0000E+00  0.0000E+00
    -40.741  0.2815E-07  0.2785E-07  0.1953E-02  0.2175E-05  0.5424E-07  0.6247E-07  0.0000E+00  0.0000E+00
    -40.564  0.1335E-05  0.2081E-08  0.8866E-01  0.1651E-06  0.2462E-05  0.4474E-08  0.0000E+00  0.0000E+00
    -40.388  0.1877E-04  0.4005E-08  0.9822E+00  0.3818E-06  0.2724E-04  0.5610E-08  0.0000E+00  0.0000E+00
    -40.212  0.1228E-03  0.1907E-07  0.3077E+01  0.1861E-05  0.8480E-04  0.2862E-07  0.0000E+00  0.0000E+00
    -40.035  0.3838E-03  0.2623E-07  0.3986E+01  0.2759E-05  0.1076E-03  0.4971E-07  0.0000E+00  0.0000E+00
    -39.859  0.4422E-03  0.1731E-07  0.3433E+01  0.1926E-05  0.8774E-04  0.4780E-07  0.0000E+00  0.0000E+00
    -39.683  0.3027E-03  0.2422E-07  0.3113E+01  0.2057E-05  0.7202E-04  0.6784E-07  0.0000E+00  0.0000E+00
    -39.506  0.1561E-03  0.2536E-07  0.1859E+01  0.1995E-05  0.4163E-04  0.6859E-07  0.0000E+00  0.0000E+00
    -39.330  0.2755E-04  0.7446E-08  0.3341E+00  0.5822E-06  0.7456E-05  0.2007E-07  0.0000E+00  0.0000E+00
    -39.154  0.1224E-05  0.5429E-09  0.1486E-01  0.4244E-07  0.3316E-06  0.1463E-08  0.0000E+00  0.0000E+00
    -38.977  0.1272E-07  0.9371E-11  0.1546E-03  0.7324E-09  0.3449E-08  0.2525E-10  0.0000E+00  0.0000E+00
    -38.801  0.2990E-10  0.3690E-13  0.3632E-06  0.2884E-11  0.8102E-11  0.9944E-13  0.0000E+00  0.0000E+00
    -38.624  0.1553E-13  0.3233E-16  0.1886E-09  0.2527E-14  0.4209E-14  0.8713E-16  0.0000E+00  0.0000E+00
    -38.448  0.1750E-17  0.6204E-20  0.2126E-13  0.4849E-18  0.4743E-18  0.1672E-19  0.0000E+00  0.0000E+00
    -38.272  0.0000E+00  0.0000E+00  0.0000E+00  0.0000E+00  0.0000E+00  0.0000E+00  0.0000E+00  0.0000E+00
    -38.095  0.0000E+00  0.0000E+00  0.0000E+00  0.0000E+00  0.0000E+00  0.0000E+00  0.0000E+00  0.0000E+00
    -37.919  0.0000E+00  0.0000E+00  0.0000E+00  0.0000E+00  0.0000E+00  0.0000E+00  0.0000E+00  0.0000E+00
    -37.743  0.0000E+00  0.0000E+00  0.0000E+00  0.0000E+00  0.0000E+00  0.0000E+00  0.0000E+00  0.0000E+00
    -37.566  0.0000E+00  0.0000E+00  0.0000E+00  0.0000E+00  0.0000E+00  0.0000E+00  0.0000E+00  0.0000E+00
    -37.390  0.0000E+00  0.0000E+00  0.0000E+00  0.0000E+00  0.0000E+00  0.0000E+00  0.0000E+00  0.0000E+00
    -37.214  0.0000E+00  0.0000E+00  0.0000E+00  0.0000E+00  0.0000E+00  0.0000E+00  0.0000E+00  0.0000E+00
    -37.037  0.0000E+00  0.0000E+00  0.0000E+00  0.0000E+00  0.0000E+00  0.0000E+00  0.0000E+00  0.0000E+00
    -36.861  0.0000E+00  0.0000E+00  0.0000E+00  0.0000E+00  0.0000E+00  0.0000E+00  0.0000E+00  0.0000E+00
    -36.685  0.0000E+00  0.0000E+00  0.0000E+00  0.0000E+00  0.0000E+00  0.0000E+00  0.0000E+00  0.0000E+00
    -36.508  0.0000E+00  0.0000E+00  0.0000E+00  0.0000E+00  0.0000E+00  0.0000E+00  0.0000E+00  0.0000E+00
    -36.332  0.0000E+00  0.0000E+00  0.0000E+00  0.0000E+00  0.0000E+00  0.0000E+00  0.0000E+00  0.0000E+00
    -36.156  0.0000E+00  0.0000E+00  0.0000E+00  0.0000E+00  0.0000E+00  0.0000E+00  0.0000E+00  0.0000E+00
    -35.979  0.0000E+00  0.0000E+00  0.0000E+00  0.0000E+00  0.0000E+00  0.0000E+00  0.0000E+00  0.0000E+00
    -35.803  0.0000E+00  0.0000E+00  0.0000E+00  0.0000E+00  0.0000E+00  0.0000E+00  0.0000E+00  0.0000E+00
    -35.626  0.0000E+00  0.0000E+00  0.0000E+00  0.0000E+00  0.0000E+00  0.0000E+00  0.0000E+00  0.0000E+00
    -35.450  0.0000E+00  0.0000E+00  0.0000E+00  0.0000E+00  0.0000E+00  0.0000E+00  0.0000E+00  0.0000E+00
    -35.274  0.0000E+00  0.0000E+00  0.0000E+00  0.0000E+00  0.0000E+00  0.0000E+00  0.0000E+00  0.0000E+00
    -35.097  0.0000E+00  0.0000E+00  0.0000E+00  0.0000E+00  0.0000E+00  0.0000E+00  0.0000E+00  0.0000E+00
    -34.921  0.0000E+00  0.0000E+00  0.0000E+00  0.0000E+00  0.0000E+00  0.0000E+00  0.0000E+00  0.0000E+00
    -34.745  0.0000E+00  0.0000E+00  0.0000E+00  0.0000E+00  0.0000E+00  0.0000E+00  0.0000E+00  0.0000E+00
    -34.568  0.0000E+00  0.0000E+00  0.0000E+00  0.0000E+00  0.0000E+00  0.0000E+00  0.0000E+00  0.0000E+00
    -34.392  0.0000E+00  0.0000E+00  0.0000E+00  0.0000E+00  0.0000E+00  0.0000E+00  0.0000E+00  0.0000E+00
    -34.216  0.0000E+00  0.0000E+00  0.0000E+00  0.0000E+00  0.0000E+00  0.0000E+00  0.0000E+00  0.0000E+00
    -34.039  0.0000E+00  0.0000E+00  0.0000E+00  0.0000E+00  0.0000E+00  0.0000E+00  0.0000E+00  0.0000E+00
    -33.863  0.0000E+00  0.0000E+00  0.0000E+00  0.0000E+00  0.0000E+00  0.0000E+00  0.0000E+00  0.0000E+00
    -33.687  0.0000E+00  0.0000E+00  0.0000E+00  0.0000E+00  0.0000E+00  0.0000E+00  0.0000E+00  0.0000E+00
    -33.510  0.0000E+00  0.0000E+00  0.0000E+00  0.0000E+00  0.0000E+00  0.0000E+00  0.0000E+00  0.0000E+00
    -33.334  0.0000E+00  0.0000E+00  0.0000E+00  0.0000E+00  0.0000E+00  0.0000E+00  0.0000E+00  0.0000E+00
    -33.158  0.0000E+00  0.0000E+00  0.0000E+00  0.0000E+00  0.0000E+00  0.0000E+00  0.0000E+00  0.0000E+00
    -32.981  0.0000E+00  0.0000E+00  0.0000E+00  0.0000E+00  0.0000E+00  0.0000E+00  0.0000E+00  0.0000E+00
    -32.805  0.0000E+00  0.0000E+00  0.0000E+00  0.0000E+00  0.0000E+00  0.0000E+00  0.0000E+00  0.0000E+00
    -32.628  0.0000E+00  0.0000E+00  0.0000E+00  0.0000E+00  0.0000E+00  0.0000E+00  0.0000E+00  0.0000E+00
    -32.452  0.0000E+00  0.0000E+00  0.0000E+00  0.0000E+00  0.0000E+00  0.0000E+00  0.0000E+00  0.0000E+00
    -32.276  0.0000E+00  0.0000E+00  0.0000E+00  0.0000E+00  0.0000E+00  0.0000E+00  0.0000E+00  0.0000E+00
    -32.099  0.1199E-16  0.1258E-16  0.2132E-16  0.1311E-16  0.9864E-18  0.9712E-18  0.0000E+00  0.0000E+00
    -31.923  0.6746E-13  0.7153E-13  0.1200E-12  0.7458E-13  0.5684E-14  0.5658E-14  0.0000E+00  0.0000E+00
    -31.747  0.8305E-10  0.8901E-10  0.1479E-09  0.9290E-10  0.7378E-11  0.7456E-11  0.0000E+00  0.0000E+00
    -31.570  0.2273E-07  0.2462E-07  0.4057E-07  0.2576E-07  0.2263E-08  0.2331E-08  0.0000E+00  0.0000E+00
    -31.394  0.1417E-05  0.1551E-05  0.2543E-05  0.1632E-05  0.1761E-06  0.1859E-06  0.0000E+00  0.0000E+00
    -31.218  0.2086E-04  0.2306E-04  0.3788E-04  0.2457E-04  0.3746E-05  0.4062E-05  0.0000E+00  0.0000E+00
    -31.041  0.7567E-04  0.8448E-04  0.1410E-03  0.9249E-04  0.2270E-04  0.2523E-04  0.0000E+00  0.0000E+00
    -30.865  0.6997E-04  0.7886E-04  0.1374E-03  0.9127E-04  0.3911E-04  0.4433E-04  0.0000E+00  0.0000E+00
    -30.689  0.1680E-04  0.1910E-04  0.3655E-04  0.2462E-04  0.1863E-04  0.2144E-04  0.0000E+00  0.0000E+00
    -30.512  0.1146E-05  0.1314E-05  0.2907E-05  0.1993E-05  0.2395E-05  0.2789E-05  0.0000E+00  0.0000E+00
    -30.336  0.3363E-07  0.3930E-07  0.9086E-07  0.6385E-07  0.9133E-07  0.1076E-06  0.0000E+00  0.0000E+00
    -30.160  0.6579E-09  0.7965E-09  0.1600E-08  0.1155E-08  0.1638E-08  0.1972E-08  0.0000E+00  0.0000E+00
    -29.983  0.3596E-10  0.4401E-10  0.4998E-10  0.3438E-10  0.3391E-10  0.3932E-10  0.0000E+00  0.0000E+00
    -29.807  0.2107E-11  0.2572E-11  0.2557E-11  0.1759E-11  0.2806E-11  0.3155E-11  0.0000E+00  0.0000E+00
    -29.630  0.3310E-13  0.3906E-13  0.3898E-13  0.2733E-13  0.9583E-13  0.1104E-12  0.0000E+00  0.0000E+00
    -29.454  0.1332E-15  0.1423E-15  0.1495E-15  0.1059E-15  0.7747E-15  0.9168E-15  0.0000E+00  0.0000E+00
    -29.278  0.1437E-18  0.1283E-18  0.1506E-18  0.1066E-18  0.1414E-17  0.1719E-17  0.0000E+00  0.0000E+00
    -29.101  0.4207E-22  0.3041E-22  0.4116E-22  0.2905E-22  0.5696E-21  0.7116E-21  0.0000E+00  0.0000E+00
    -28.925  0.2602E-26  0.1473E-26  0.2338E-26  0.1802E-26  0.4635E-25  0.6625E-25  0.0000E+00  0.0000E+00
    -28.749  0.0000E+00  0.0000E+00  0.0000E+00  0.0000E+00  0.0000E+00  0.0000E+00  0.0000E+00  0.0000E+00
    -28.572  0.0000E+00  0.0000E+00  0.0000E+00  0.0000E+00  0.0000E+00  0.0000E+00  0.0000E+00  0.0000E+00
    -28.396  0.0000E+00  0.0000E+00  0.0000E+00  0.0000E+00  0.0000E+00  0.0000E+00  0.0000E+00  0.0000E+00
    -28.220  0.0000E+00  0.0000E+00  0.0000E+00  0.0000E+00  0.0000E+00  0.0000E+00  0.0000E+00  0.0000E+00
    -28.043  0.0000E+00  0.0000E+00  0.0000E+00  0.0000E+00  0.0000E+00  0.0000E+00  0.0000E+00  0.0000E+00
    -27.867  0.0000E+00  0.0000E+00  0.0000E+00  0.0000E+00  0.0000E+00  0.0000E+00  0.0000E+00  0.0000E+00
    -27.691  0.0000E+00  0.0000E+00  0.0000E+00  0.0000E+00  0.0000E+00  0.0000E+00  0.0000E+00  0.0000E+00
    -27.514  0.0000E+00  0.0000E+00  0.0000E+00  0.0000E+00  0.0000E+00  0.0000E+00  0.0000E+00  0.0000E+00