       N       E                     dE             d eps       ncg     rms          rms(c)
DAV:   1     0.456285601501E+04    0.45629E+04   -0.11066E+05   800   0.160E+03
DAV:   2     0.964465402524E+03   -0.35984E+04   -0.33184E+04   840   0.502E+02
DAV:   3    -0.171053441917E+03   -0.11355E+04   -0.10857E+04  1020   0.240E+02
DAV:   4    -0.349886563475E+03   -0.17883E+03   -0.17228E+03  1220   0.960E+01
DAV:   5    -0.366881378529E+03   -0.16995E+02   -0.15538E+02  1380   0.281E+01    0.861E+01
DAV:   6    -0.601039108520E+03   -0.23416E+03   -0.51146E+03  1260   0.154E+02    0.310E+02
DAV:   7    -0.434406773368E+03    0.16663E+03   -0.15168E+03  1380   0.164E+02    0.190E+02
DAV:   8    -0.871418441501E+03   -0.43701E+03   -0.24336E+03  1360   0.132E+02    0.113E+03
DAV:   9    -0.107682618208E+04   -0.20541E+03   -0.11133E+03  1440   0.864E+01    0.147E+03
DAV:  10    -0.111292188771E+04   -0.36096E+02   -0.21573E+02  1500   0.232E+01    0.150E+03
DAV:  11    -0.104096478529E+04    0.71957E+02   -0.80683E+01  1300   0.124E+01    0.164E+03
DAV:  12    -0.961097982088E+03    0.79867E+02   -0.75327E+01  1440   0.916E+00    0.185E+03
DAV:  13    -0.674254020842E+03    0.28684E+03   -0.26615E+02  1160   0.250E+01    0.207E+03
DAV:  14    -0.486155395498E+03    0.18810E+03   -0.28530E+02  1280   0.286E+01    0.149E+03
DAV:  15    -0.376949685003E+03    0.10921E+03   -0.33801E+03  1260   0.875E+01    0.185E+02
DAV:  16    -0.573433948867E+03   -0.19648E+03   -0.17847E+03  1500   0.118E+02    0.137E+02
DAV:  17    -0.359203766120E+03    0.21423E+03   -0.59417E+02  1280   0.805E+01    0.836E+01
DAV:  18    -0.308140635965E+03    0.51063E+02   -0.29793E+02  1100   0.553E+01    0.641E+01
DAV:  19    -0.339423597639E+03   -0.31283E+02   -0.55575E+02  1260   0.487E+01    0.787E+01
DAV:  20    -0.301154831219E+03    0.38269E+02   -0.14048E+02   980   0.329E+01    0.411E+01
DAV:  21    -0.303697086845E+03   -0.25423E+01   -0.11658E+02  1400   0.194E+01    0.510E+01
DAV:  22    -0.297970057869E+03    0.57270E+01   -0.72793E+01  1080   0.148E+01    0.422E+01
DAV:  23    -0.296603979004E+03    0.13661E+01   -0.30441E+01  1200   0.109E+01    0.331E+01
DAV:  24    -0.298555452445E+03   -0.19515E+01   -0.55777E+01  1000   0.100E+01    0.383E+01
DAV:  25    -0.294823267018E+03    0.37322E+01   -0.24187E+01  1280   0.832E+00    0.220E+01
DAV:  26    -0.295618029442E+03   -0.79476E+00   -0.55670E+00  1060   0.480E+00    0.261E+01
DAV:  27    -0.295154288928E+03    0.46374E+00   -0.18313E+00  1240   0.341E+00    0.229E+01
DAV:  28    -0.295062554477E+03    0.91734E-01   -0.32430E-01  1340   0.124E+00    0.230E+01
DAV:  29    -0.294789093673E+03    0.27346E+00   -0.85285E-01  1060   0.211E+00    0.208E+01
DAV:  30    -0.294877357348E+03   -0.88264E-01   -0.29147E+00  1040   0.335E+00
   1 F= -.29487736E+03 E0= -.29457790E+03  d E =-.294877E+03  mag=     8.0006
       N       E                     dE             d eps       ncg     rms          rms(c)
DAV:   1    -0.292956161621E+03    0.18329E+01   -0.50647E+02   770   0.513E+01    0.203E+01
DAV:   2    -0.630017335399E+03   -0.33706E+03   -0.24715E+03  1380   0.725E+01    0.244E+02
DAV:   3    -0.352395808113E+03    0.27762E+03   -0.10209E+03  1310   0.980E+01    0.772E+02
DAV:   4    -0.364356458042E+03   -0.11961E+02   -0.49089E+02  1340   0.334E+01    0.103E+03
DAV:   5    -0.367244466172E+03   -0.28880E+01   -0.90986E+01  1400   0.160E+01    0.774E+02
DAV:   6    -0.368696128700E+03   -0.14517E+01   -0.75618E+00  1400   0.533E+00    0.764E+02
DAV:   7    -0.368976952352E+03   -0.28082E+00   -0.63265E-01  1400   0.179E+00    0.805E+02
DAV:   8    -0.368422131575E+03    0.55482E+00   -0.30925E-01  1120   0.123E+00    0.757E+02
DAV:   9    -0.368175348331E+03    0.24678E+00   -0.88548E-02  1280   0.661E-01    0.755E+02
DAV:  10    -0.363320607805E+03    0.48547E+01   -0.48362E+00  1120   0.293E+00    0.749E+02
DAV:  11    -0.361579383728E+03    0.17412E+01   -0.54689E-01  1120   0.212E+00    0.746E+02
DAV:  12    -0.326053441105E+03    0.35526E+02   -0.80273E+01  1120   0.187E+01    0.839E+01
DAV:  13    -0.290151825451E+03    0.35902E+02   -0.18806E+02  1120   0.319E+01    0.522E+01
DAV:  14    -0.294683536122E+03   -0.45317E+01   -0.91453E+01  1320   0.195E+01    0.597E+01
DAV:  15    -0.290667838330E+03    0.40157E+01   -0.43548E+01  1200   0.127E+01    0.554E+01
DAV:  16    -0.290935391696E+03   -0.26755E+00   -0.91637E+00  1220   0.693E+00    0.571E+01
DAV:  17    -0.290924343531E+03    0.11048E-01   -0.65923E+00  1080   0.445E+00    0.574E+01
DAV:  18    -0.291054598594E+03   -0.13026E+00   -0.46261E-01  1380   0.178E+00    0.580E+01
DAV:  19    -0.291242966462E+03   -0.18837E+00   -0.15074E-01  1080   0.115E+00    0.586E+01
DAV:  20    -0.291330843972E+03   -0.87878E-01   -0.55341E-02  1440   0.607E-01    0.587E+01
DAV:  21    -0.291364125446E+03   -0.33281E-01   -0.11976E-01  1260   0.721E-01    0.587E+01
DAV:  22    -0.291146067453E+03    0.21806E+00   -0.10110E-01  1220   0.764E-01    0.586E+01
DAV:  23    -0.292494218679E+03   -0.13482E+01   -0.36942E+00  1140   0.461E+00    0.623E+01
DAV:  24    -0.290557863256E+03    0.19364E+01   -0.16972E+01   980   0.910E+00    0.781E+01
DAV:  25    -0.289819702072E+03    0.73816E+00   -0.27651E+01  1360   0.749E+00    0.724E+01
DAV:  26    -0.289890235195E+03   -0.70533E-01   -0.97000E+00  1280   0.480E+00    0.695E+01
DAV:  27    -0.290636519036E+03   -0.74628E+00   -0.13962E+01  1160   0.563E+00    0.864E+01
DAV:  28    -0.289416836687E+03    0.12197E+01   -0.66592E+00  1400   0.364E+00    0.778E+01
DAV:  29    -0.291029917315E+03   -0.16131E+01   -0.52728E+00  1160   0.528E+00    0.745E+01
DAV:  30    -0.291532298870E+03   -0.50238E+00   -0.31419E+00  1100   0.397E+00
   2 F= -.29153230E+03 E0= -.29132036E+03  d E =0.334506E+01  mag=     7.8559
       N       E                     dE             d eps       ncg     rms          rms(c)
DAV:   1    -0.291804633473E+03   -0.77472E+00   -0.12143E+01   830   0.877E+00    0.732E+01
DAV:   2    -0.392760201260E+03   -0.10096E+03   -0.62096E+02  1320   0.726E+01    0.120E+02
DAV:   3    -0.102929268856E+04   -0.63653E+03   -0.81140E+03  1300   0.146E+02    0.285E+02
DAV:   4    -0.234909637489E+03    0.79438E+03   -0.31199E+03  1260   0.194E+02    0.146E+02
DAV:   5    -0.284463028115E+03   -0.49553E+02   -0.13524E+03  1400   0.744E+01    0.532E+01
DAV:   6    -0.324372538166E+03   -0.39910E+02   -0.74358E+02  1160   0.485E+01    0.517E+01
DAV:   7    -0.303131764139E+03    0.21241E+02   -0.22597E+02  1190   0.310E+01    0.634E+01
DAV:   8    -0.289349126600E+03    0.13783E+02   -0.94689E+01  1200   0.193E+01    0.301E+01
DAV:   9    -0.293583761930E+03   -0.42346E+01   -0.53093E+01  1100   0.141E+01    0.414E+01
DAV:  10    -0.289177404874E+03    0.44064E+01   -0.43048E+01  1140   0.110E+01    0.250E+01
DAV:  11    -0.289545362790E+03   -0.36796E+00   -0.16406E+01  1280   0.737E+00    0.243E+01
DAV:  12    -0.289972348216E+03   -0.42699E+00   -0.51791E+00  1080   0.494E+00    0.194E+01
DAV:  13    -0.290567449655E+03   -0.59510E+00   -0.14981E+00  1220   0.324E+00    0.176E+01
DAV:  14    -0.290746636474E+03   -0.17919E+00   -0.52948E-01  1140   0.207E+00    0.166E+01
DAV:  15    -0.290927291220E+03   -0.18065E+00   -0.19974E-01  1220   0.125E+00    0.161E+01
DAV:  16    -0.291016170454E+03   -0.88879E-01   -0.86411E-02  1320   0.798E-01    0.162E+01
DAV:  17    -0.290986587043E+03    0.29583E-01   -0.14761E-02  1120   0.338E-01    0.162E+01
DAV:  18    -0.290930020831E+03    0.56566E-01   -0.22480E-02  1180   0.388E-01    0.162E+01
DAV:  19    -0.290836087611E+03    0.93933E-01   -0.72068E-02   960   0.712E-01    0.163E+01
DAV:  20    -0.290256513773E+03    0.57957E+00   -0.90706E-01   880   0.209E+00    0.155E+01
DAV:  21    -0.290289603090E+03   -0.33089E-01   -0.15265E+00  1260   0.265E+00    0.129E+01
DAV:  22    -0.290538248778E+03   -0.24865E+00   -0.45137E-01  1180   0.169E+00    0.122E+01
DAV:  23    -0.290740860477E+03   -0.20261E+00   -0.93220E-01  1260   0.238E+00    0.111E+01
DAV:  24    -0.290788877178E+03   -0.48017E-01   -0.16936E+00  1290   0.187E+00    0.968E+00
DAV:  25    -0.290865949601E+03   -0.77072E-01   -0.62456E-01  1020   0.165E+00    0.859E+00
DAV:  26    -0.290958522216E+03   -0.92573E-01   -0.84183E-01  1360   0.111E+00    0.862E+00
DAV:  27    -0.290919879715E+03    0.38643E-01   -0.72757E-02  1020   0.735E-01    0.801E+00
DAV:  28    -0.290856630899E+03    0.63249E-01   -0.60263E-02  1180   0.582E-01    0.753E+00
DAV:  29    -0.290689712642E+03    0.16692E+00   -0.49960E-01  1000   0.109E+00    0.616E+00
DAV:  30    -0.290707195214E+03   -0.17483E-01   -0.20531E-01  1300   0.889E-01
   3 F= -.29070720E+03 E0= -.29054551E+03  d E =0.417016E+01  mag=     7.6012
       N       E                     dE             d eps       ncg     rms          rms(c)
DAV:   1    -0.291110178764E+03   -0.42047E+00   -0.27693E+01   800   0.130E+01    0.524E+00
DAV:   2    -0.292878104072E+03   -0.17679E+01   -0.14003E+01  1340   0.862E+00    0.237E+01
DAV:   3    -0.292569433462E+03    0.30867E+00   -0.30616E+01  1180   0.861E+00    0.159E+01
DAV:   4    -0.291310922491E+03    0.12585E+01   -0.21859E+01  1060   0.701E+00    0.816E+00
DAV:   5    -0.291254991621E+03    0.55931E-01   -0.54719E+00  1180   0.371E+00    0.518E+00
DAV:   6    -0.291342834598E+03   -0.87843E-01   -0.48746E+00  1220   0.303E+00    0.707E+00
DAV:   7    -0.291322070214E+03    0.20764E-01   -0.29579E-01  1160   0.137E+00    0.682E+00
DAV:   8    -0.291294529819E+03    0.27540E-01   -0.43737E-02  1320   0.633E-01    0.700E+00
DAV:   9    -0.291254792072E+03    0.39738E-01   -0.55037E-02  1180   0.557E-01    0.641E+00
DAV:  10    -0.291351774411E+03   -0.96982E-01   -0.15106E-01  1060   0.100E+00    0.605E+00
DAV:  11    -0.291299254675E+03    0.52520E-01   -0.25315E-01  1140   0.135E+00    0.366E+00
DAV:  12    -0.291397122996E+03   -0.97868E-01   -0.40811E-01  1320   0.140E+00    0.249E+00
DAV:  13    -0.291446861452E+03   -0.49738E-01   -0.28382E-01  1080   0.101E+00    0.262E+00
DAV:  14    -0.291462134546E+03   -0.15273E-01   -0.39115E-02  1340   0.517E-01    0.245E+00
DAV:  15    -0.291460467766E+03    0.16668E-02   -0.31826E-03  1280   0.158E-01    0.243E+00
DAV:  16    -0.291456969887E+03    0.34979E-02   -0.28914E-03  1200   0.110E-01    0.244E+00
DAV:  17    -0.291449597533E+03    0.73724E-02   -0.12175E-02  1040   0.131E-01    0.254E+00
DAV:  18    -0.291461031224E+03   -0.11434E-01   -0.20927E-02  1020   0.191E-01    0.234E+00
DAV:  19    -0.291465552667E+03   -0.45214E-02   -0.31168E-02  1100   0.304E-01    0.241E+00
DAV:  20    -0.291459533162E+03    0.60195E-02   -0.16552E-02  1280   0.206E-01    0.257E+00
DAV:  21    -0.291467608259E+03   -0.80751E-02   -0.59373E-02  1020   0.327E-01    0.217E+00
DAV:  22    -0.291497536745E+03   -0.29928E-01   -0.83072E-02  1220   0.363E-01    0.174E+00
DAV:  23    -0.291508619299E+03   -0.11083E-01   -0.84188E-02  1080   0.384E-01    0.152E+00
DAV:  24    -0.291499139624E+03    0.94797E-02   -0.11157E-01  1300   0.462E-01    0.135E+00
DAV:  25    -0.291482885124E+03    0.16254E-01   -0.45938E-02  1180   0.322E-01    0.124E+00
DAV:  26    -0.291488992152E+03   -0.61070E-02   -0.35720E-02  1280   0.278E-01    0.761E-01
DAV:  27    -0.291543677076E+03   -0.54685E-01   -0.71071E-02   980   0.355E-01    0.961E-01
DAV:  28    -0.291554498513E+03   -0.10821E-01   -0.87685E-03  1280   0.222E-01    0.112E+00
DAV:  29    -0.291568864436E+03   -0.14366E-01   -0.15274E-02  1220   0.180E-01    0.104E+00
DAV:  30    -0.291572545879E+03   -0.36814E-02   -0.21819E-02  1180   0.194E-01
   4 F= -.29157255E+03 E0= -.29142795E+03  d E =0.330481E+01  mag=     7.7808
       N       E                     dE             d eps       ncg     rms          rms(c)
DAV:   1    -0.291840336903E+03   -0.27147E+00   -0.45107E+01   760   0.163E+01    0.273E+00
DAV:   2    -0.293957075113E+03   -0.21167E+01   -0.22482E+01  1280   0.765E+00    0.156E+01
DAV:   3    -0.292452580034E+03    0.15045E+01   -0.15430E+01  1160   0.563E+00    0.967E+00
DAV:   4    -0.292112936722E+03    0.33964E+00   -0.27165E+00  1080   0.300E+00    0.577E+00
DAV:   5    -0.292025630325E+03    0.87306E-01   -0.76381E-01  1180   0.180E+00    0.331E+00
DAV:   6    -0.292012604062E+03    0.13026E-01   -0.10588E-01  1140   0.105E+00    0.214E+00
DAV:   7    -0.292021817220E+03   -0.92132E-02   -0.73944E-02  1280   0.664E-01    0.200E+00
DAV:   8    -0.292036986422E+03   -0.15169E-01   -0.36240E-02  1240   0.532E-01    0.242E+00
DAV:   9    -0.292033945719E+03    0.30407E-02   -0.21402E-03  1220   0.146E-01    0.239E+00
DAV:  10    -0.292031197138E+03    0.27486E-02   -0.10959E-03  1000   0.787E-02    0.229E+00
DAV:  11    -0.292010387434E+03    0.20810E-01   -0.30032E-02  1040   0.377E-01    0.156E+00
DAV:  12    -0.292018264486E+03   -0.78771E-02   -0.70667E-02  1220   0.560E-01    0.161E+00
DAV:  13    -0.292008251653E+03    0.10013E-01   -0.20897E-02  1100   0.479E-01    0.106E+00
DAV:  14    -0.292004708107E+03    0.35435E-02   -0.52886E-03  1320   0.255E-01    0.943E-01
DAV:  15    -0.292006392602E+03   -0.16845E-02   -0.21083E-03  1100   0.113E-01    0.989E-01
DAV:  16    -0.292013198169E+03   -0.68056E-02   -0.41302E-03  1000   0.101E-01    0.984E-01
DAV:  17    -0.292032061896E+03   -0.18864E-01   -0.11994E-02  1000   0.193E-01    0.885E-01
DAV:  18    -0.292052901121E+03   -0.20839E-01   -0.21766E-02  1160   0.292E-01    0.676E-01
DAV:  19    -0.292066116778E+03   -0.13216E-01   -0.47732E-03  1140   0.210E-01    0.490E-01
DAV:  20    -0.292072949109E+03   -0.68323E-02   -0.15665E-03  1160   0.137E-01    0.410E-01
DAV:  21    -0.292083663584E+03   -0.10714E-01   -0.15819E-03  1000   0.100E-01    0.345E-01
DAV:  22    -0.292098615721E+03   -0.14952E-01   -0.25264E-03  1100   0.104E-01    0.224E-01
DAV:  23    -0.292112040354E+03   -0.13425E-01   -0.20095E-03  1120   0.118E-01    0.142E-01
DAV:  24    -0.292116823704E+03   -0.47834E-02   -0.69130E-04   880   0.832E-02    0.896E-02
DAV:  25    -0.292126034255E+03   -0.92106E-02   -0.52113E-04   740   0.541E-02    0.691E-02
DAV:  26    -0.292134035681E+03   -0.80014E-02   -0.35392E-04   820   0.426E-02    0.662E-02
DAV:  27    -0.292139671202E+03   -0.56355E-02   -0.22988E-04   720   0.415E-02    0.820E-02
DAV:  28    -0.292143361382E+03   -0.36902E-02   -0.33444E-04   760   0.626E-02    0.144E-01
DAV:  29    -0.292144469488E+03   -0.11081E-02   -0.24780E-04   740   0.688E-02    0.789E-02
DAV:  30    -0.292146009176E+03   -0.15397E-02   -0.27238E-04   700   0.638E-02
   5 F= -.29214601E+03 E0= -.29200753E+03  d E =0.273135E+01  mag=     7.8361
