 vasp.6.4.3 19Mar24 (build Jul 09 2024 15:45:28) complex                        
  
 executed on             LinuxIFC date 2024.10.29  12:03:35
 running   40 mpi-ranks, on    1 nodes
 distrk:  each k-point on   40 cores,    1 groups
 distr:  one band on NCORE=   4 cores,   10 groups


--------------------------------------------------------------------------------------------------------


 INCAR:
   ENCUT = 400.000000
   POTIM = 0.150000
   EDIFF = 1.00e-04
   EDIFFG = -1.00e-01
   ALGO = Normal
   GGA = PE
   PREC = Normal
   IBRION = 2
   IDIPOL = 3
   ISMEAR = 0
   ISPIN = 2
   LMAXMIX = 6
   LORBIT = 10
   NELM = 30
   NELMIN = 5
   NPAR = 10
   NSIM = 10
   NSW = 5
   KGAMMA = .TRUE.
   LASPH = .TRUE.
   LCHARG = .FALSE.
   LDIPOL = .TRUE.
   LWAVE = .FALSE.
   LREAL = .TRUE.
   MAGMOM = 8*1.0000 26*0.0000 2*1.0000

 POTCAR:    PAW_PBE Cr_pv 02Aug2007               
 POTCAR:    PAW_PBE La 06Sep2000                  
 POTCAR:    PAW_PBE O 08Apr2002                   
 POTCAR:    PAW_PBE Cr_pv 02Aug2007               
   SHA256 =  c9a7df34d3cdbacf1090e328ef39c0b420964e11c23f63548d1ac9dd218cdba0 Cr_pv/POTCAR          
   COPYR  = (c) Copyright 02Aug2007 Georg Kresse                                                    
   COPYR  = This file is part of the software VASP. Any use, copying, and all other rights are regul
   COPYR  = If you do not have a valid VASP license, you may not use, copy or distribute this file. 
   VRHFIN =Cr : p6d5s1                                                                              
   LEXCH  = PE                                                                                      
   EATOM  =  1647.9177 eV,  121.1185 Ry                                                             
                                                                                                    
   TITEL  = PAW_PBE Cr_pv 02Aug2007                                                                 
   LULTRA =        F    use ultrasoft PP ?                                                          
   IUNSCR =        1    unscreen: 0-lin 1-nonlin 2-no                                               
   RPACOR =    2.080    partial core radius                                                         
   POMASS =   51.996; ZVAL   =   12.000    mass and valenz                                          
   RCORE  =    2.300    outmost cutoff radius                                                       
   RWIGS  =    2.500; RWIGS  =    1.323    wigner-seitz radius (au A)                               
   ENMAX  =  265.681; ENMIN  =  199.261 eV                                                          
   ICORE  =        3    local potential                                                             
   LCOR   =        T    correct aug charges                                                         
   LPAW   =        T    paw PP                                                                      
   EAUG   =  519.424                                                                                
   DEXC   =    0.000                                                                                
   RMAX   =    2.356    core radius for proj-oper                                                   
   RAUG   =    1.300    factor for augmentation sphere                                              
   RDEP   =    2.447    radius for radial grids                                                     
   RDEPT  =    1.882    core radius for aug-charge                                                  
                                                                                                    
   Atomic configuration                                                                             
    8 entries                                                                                       
     n  l   j            E        occ.                                                              
     1  0  0.50     -5880.4963   2.0000                                                             
     2  0  0.50      -667.0865   2.0000                                                             
     2  1  1.50      -560.6250   6.0000                                                             
     3  0  0.50       -73.9860   2.0000                                                             
     3  1  1.50       -45.4378   6.0000                                                             
     3  2  2.50        -2.9137   5.0000                                                             
     4  0  0.50        -4.0071   1.0000                                                             
     4  3  2.50        -1.3606   0.0000                                                             
   Description                                                                                      
     l       E           TYP  RCUT    TYP  RCUT                                                     
     1    -45.4377911     23  2.000                                                                 
     1      1.3605826     23  2.000                                                                 
     2     -2.9136672     23  2.300                                                                 
     2     -4.2742498     23  2.300                                                                 
     0     -4.0071320     23  2.300                                                                 
     0      9.4498803     23  2.300                                                                 
     3      2.7211652     23  2.300                                                                 
  local pseudopotential read in
  partial core-charges read in
  partial kinetic energy density read in
  atomic valenz-charges read in
  non local Contribution for L=           1  read in
    real space projection operators read in
  non local Contribution for L=           1  read in
    real space projection operators read in
  non local Contribution for L=           2  read in
    real space projection operators read in
  non local Contribution for L=           2  read in
    real space projection operators read in
  non local Contribution for L=           0  read in
    real space projection operators read in
  non local Contribution for L=           0  read in
    real space projection operators read in
    PAW grid and wavefunctions read in
 
   number of l-projection  operators is LMAX  =           6
   number of lm-projection operators is LMMAX =          18
 
 POTCAR:    PAW_PBE La 06Sep2000                  
   SHA256 =  b7aad99517e50aeb53363b20a29bb0dfa896544080812fb23322f071df953199 La/POTCAR             
   COPYR  = (c) Copyright 06Sep2000 Georg Kresse                                                    
   COPYR  = This file is part of the software VASP. Any use, copying, and all other rights are regul
   COPYR  = If you do not have a valid VASP license, you may not use, copy or distribute this file. 
   VRHFIN =La : [core=Kr4d]                                                                         
   LEXCH  = PE                                                                                      
   EATOM  =   865.9763 eV,   63.6475 Ry                                                             
                                                                                                    
   TITEL  = PAW_PBE La 06Sep2000                                                                    
   LULTRA =        F    use ultrasoft PP ?                                                          
   IUNSCR =        1    unscreen: 0-lin 1-nonlin 2-no                                               
   RPACOR =    2.300    partial core radius                                                         
   POMASS =  138.900; ZVAL   =   11.000    mass and valenz                                          
   RCORE  =    2.800    outmost cutoff radius                                                       
   RWIGS  =    2.900; RWIGS  =    1.535    wigner-seitz radius (au A)                               
   ENMAX  =  219.292; ENMIN  =  164.469 eV                                                          
   RCLOC  =    1.601    cutoff for local pot                                                        
   LCOR   =        T    correct aug charges                                                         
   LPAW   =        T    paw PP                                                                      
   EAUG   =  583.575                                                                                
   DEXC   =    0.000                                                                                
   RMAX   =    2.853    core radius for proj-oper                                                   
   RAUG   =    1.300    factor for augmentation sphere                                              
   RDEP   =    2.802    radius for radial grids                                                     
   RDEPT  =    2.156    core radius for aug-charge                                                  
                                                                                                    
   Atomic configuration                                                                             
   14 entries                                                                                       
     n  l   j            E        occ.                                                              
     1  0  0.50    -38741.0879   2.0000                                                             
     2  0  0.50     -6166.6801   2.0000                                                             
     2  1  1.50     -5526.1593   6.0000                                                             
     3  0  0.50     -1319.0200   2.0000                                                             
     3  1  1.50     -1114.5963   6.0000                                                             
     3  2  2.50      -821.1793  10.0000                                                             
     4  0  0.50      -266.3851   2.0000                                                             
     4  1  1.50      -199.9276   6.0000                                                             
     4  2  2.50      -103.8239  10.0000                                                             
     5  0  0.50       -38.9172   2.0000                                                             
     6  0  0.50        -3.6792   2.0000                                                             
     5  1  1.50       -22.3948   6.0000                                                             
     5  2  2.50        -3.0911   0.9999                                                             
     4  3  2.50        -4.3603   0.0001                                                             
   Description                                                                                      
     l       E           TYP  RCUT    TYP  RCUT                                                     
     0    -38.9171645     23  2.800                                                                 
     0     -3.6792381     23  2.800                                                                 
     1    -22.3948300     23  2.500                                                                 
     1     27.2116520     23  2.500                                                                 
     2     -3.0910934     23  2.500                                                                 
     2      1.0119135     23  2.500                                                                 
     3     -4.3602911     23  2.800                                                                 
     3     -5.7208737     23  2.800                                                                 
  local pseudopotential read in
  partial core-charges read in
  partial kinetic energy density read in
  atomic valenz-charges read in
  non local Contribution for L=           0  read in
    real space projection operators read in
  non local Contribution for L=           0  read in
    real space projection operators read in
  non local Contribution for L=           1  read in
    real space projection operators read in
  non local Contribution for L=           1  read in
    real space projection operators read in
  non local Contribution for L=           2  read in
    real space projection operators read in
  non local Contribution for L=           2  read in
    real space projection operators read in
  non local Contribution for L=           3  read in
    real space projection operators read in
  non local Contribution for L=           3  read in
    real space projection operators read in
    PAW grid and wavefunctions read in
 
   number of l-projection  operators is LMAX  =           8
   number of lm-projection operators is LMMAX =          32
 
 POTCAR:    PAW_PBE O 08Apr2002                   
   SHA256 =  818f92134a0a090dccd8ba1447fa70422a3b330e708bb4f08108d8ae51209ddf O/POTCAR              
   COPYR  = (c) Copyright 08Apr2002 Georg Kresse                                                    
   COPYR  = This file is part of the software VASP. Any use, copying, and all other rights are regul
   COPYR  = If you do not have a valid VASP license, you may not use, copy or distribute this file. 
   VRHFIN =O: s2p4                                                                                  
   LEXCH  = PE                                                                                      
   EATOM  =   432.3788 eV,   31.7789 Ry                                                             
                                                                                                    
   TITEL  = PAW_PBE O 08Apr2002                                                                     
   LULTRA =        F    use ultrasoft PP ?                                                          
   IUNSCR =        1    unscreen: 0-lin 1-nonlin 2-no                                               
   RPACOR =    1.200    partial core radius                                                         
   POMASS =   16.000; ZVAL   =    6.000    mass and valenz                                          
   RCORE  =    1.520    outmost cutoff radius                                                       
   RWIGS  =    1.550; RWIGS  =    0.820    wigner-seitz radius (au A)                               
   ENMAX  =  400.000; ENMIN  =  300.000 eV                                                          
   ICORE  =        2    local potential                                                             
   LCOR   =        T    correct aug charges                                                         
   LPAW   =        T    paw PP                                                                      
   EAUG   =  605.392                                                                                
   DEXC   =    0.000                                                                                
   RMAX   =    1.553    core radius for proj-oper                                                   
   RAUG   =    1.300    factor for augmentation sphere                                              
   RDEP   =    1.550    radius for radial grids                                                     
   RDEPT  =    1.329    core radius for aug-charge                                                  
                                                                                                    
   Atomic configuration                                                                             
    4 entries                                                                                       
     n  l   j            E        occ.                                                              
     1  0  0.50      -514.6923   2.0000                                                             
     2  0  0.50       -23.9615   2.0000                                                             
     2  1  0.50        -9.0305   4.0000                                                             
     3  2  1.50        -9.5241   0.0000                                                             
   Description                                                                                      
     l       E           TYP  RCUT    TYP  RCUT                                                     
     0    -23.9615318     23  1.200                                                                 
     0     -9.5240782     23  1.200                                                                 
     1     -9.0304911     23  1.520                                                                 
     1      8.1634956     23  1.520                                                                 
     2     -9.5240782      7  1.500                                                                 
  local pseudopotential read in
  partial core-charges read in
  partial kinetic energy density read in
  kinetic energy density of atom read in
  atomic valenz-charges read in
  non local Contribution for L=           0  read in
    real space projection operators read in
  non local Contribution for L=           0  read in
    real space projection operators read in
  non local Contribution for L=           1  read in
    real space projection operators read in
  non local Contribution for L=           1  read in
    real space projection operators read in
    PAW grid and wavefunctions read in
 
   number of l-projection  operators is LMAX  =           4
   number of lm-projection operators is LMMAX =           8
 
 -----------------------------------------------------------------------------
|                                                                             |
|           W    W    AA    RRRRR   N    N  II  N    N   GGGG   !!!           |
|           W    W   A  A   R    R  NN   N  II  NN   N  G    G  !!!           |
|           W    W  A    A  R    R  N N  N  II  N N  N  G       !!!           |
|           W WW W  AAAAAA  RRRRR   N  N N  II  N  N N  G  GGG   !            |
|           WW  WW  A    A  R   R   N   NN  II  N   NN  G    G                |
|           W    W  A    A  R    R  N    N  II  N    N   GGGG   !!!           |
|                                                                             |
|     The real-space projection scheme for the treatment of the non-local     |
|     pseudopotentials has been switched on but on file POTCAR I have not     |
|     found any entries, signalling me that you have never performed a        |
|     real-space optimization of all non-local projectors! BE WARNED that     |
|     a calculation using the real-space projection scheme together with      |
|     non-local projectors which were not real-space optimized (according     |
|     to the plane-wave cutoff used in this calculation) might give more      |
|     or less inaccurate results. I hope you know what you are doing.         |
|                                                                             |
 -----------------------------------------------------------------------------

  PAW_PBE Cr_pv 02Aug2007               :
 energy of atom  1       EATOM=-1647.9177
 kinetic energy error for atom=    0.0284 (will be added to EATOM!!)
  PAW_PBE La 06Sep2000                  :
 energy of atom  2       EATOM= -865.9763
 kinetic energy error for atom=    0.0031 (will be added to EATOM!!)
  PAW_PBE O 08Apr2002                   :
 energy of atom  3       EATOM= -432.3788
 kinetic energy error for atom=    0.1156 (will be added to EATOM!!)
 
 
 POSCAR: Cr La O
  positions in cartesian coordinates
  No initial velocities read in


 exchange-correlation table for PE
   RHO(1)=    0.500       N(1)  =     2000
   RHO(2)=  100.500       N(2)  =     4000

 VTST: version 4.1, (05/19/21)

 CHAIN: initializing optimizer
 
 OPT: Using VASP Conjugate-Gradient optimizer
 CHAIN: Read ICHAIN            0
 
 POSCAR: Cr La O
  positions in cartesian coordinates
  No initial velocities read in
 


--------------------------------------------------------------------------------------------------------


 ion  position               nearest neighbor table
   1  0.000  0.500  0.003-  16 1.91  18 1.97  15 2.18  10 3.23   9 3.35   9 3.42
   2  0.500  0.000  0.003-  15 1.91  17 1.97  16 2.18   9 3.23  10 3.35  10 3.42
   3  0.500  0.000  0.136-  20 1.91  21 1.91  17 1.97  23 1.97  22 2.18  19 2.18   9 3.23  11 3.23
                            10 3.35  12 3.35  12 3.42  10 3.42
   4  0.000  0.500  0.136-  19 1.91  22 1.91  18 1.97  24 1.97  20 2.18  21 2.18  10 3.23  12 3.23
                            11 3.35   9 3.35   9 3.42  11 3.42
   5  1.000  0.499  0.269-  30 1.90  28 1.97  25 2.00  24 2.01  27 2.13  26 2.13  14 3.25  12 3.26
                            13 3.34  11 3.37
   6  0.500  0.999  0.269-  29 1.90  27 1.97  26 2.00  23 2.01  28 2.13  25 2.13  13 3.25  11 3.26
                            14 3.34  12 3.37
   7  0.489  0.003  0.400-  33 1.89  29 1.97  32 2.02  34 2.12  31 2.16  13 3.23  14 3.34  14 3.35

   8  0.011  0.503  0.400-  36 1.71  34 1.89  30 1.97  31 2.02  33 2.12  35 2.13  32 2.16  14 3.23
                            13 3.34  13 3.35
   9  0.508  0.549  0.070-  18 2.43  16 2.46  19 2.46  17 2.56  15 2.65  20 2.65  22 2.70   3 3.23
                             2 3.23   4 3.35   1 3.35   4 3.42   1 3.42
  10  0.992  0.049  0.070-  17 2.43  15 2.46  20 2.46  18 2.56  19 2.65  16 2.65  21 2.70   4 3.23
                             1 3.23   3 3.35   2 3.35   3 3.42   2 3.42
  11  0.492  0.451  0.202-  25 2.40  24 2.43  22 2.46  23 2.56  28 2.64  21 2.65  26 2.66  19 2.70
                             3 3.23   6 3.26   4 3.35   5 3.37   4 3.42
  12  0.008  0.951  0.202-  26 2.40  23 2.43  21 2.46  24 2.56  27 2.64  22 2.65  25 2.66  20 2.70
                             4 3.23   5 3.26   3 3.35   6 3.37   3 3.42
  13  0.510  0.544  0.336-  31 2.36  28 2.43  30 2.45  34 2.59  32 2.59  29 2.68  27 2.76  25 2.76
                             7 3.23   6 3.25   5 3.34   8 3.34   8 3.35
  14  0.990  0.044  0.336-  32 2.36  27 2.43  29 2.45  33 2.59  31 2.59  30 2.68  28 2.76  26 2.76
                             8 3.23   5 3.25   6 3.34   7 3.34   7 3.35
  15  0.774  0.807  0.014-   2 1.91   1 2.18  10 2.46   9 2.65
  16  0.726  0.307  0.014-   1 1.91   2 2.18   9 2.46  10 2.65
  17  0.425  0.987  0.070-   3 1.97   2 1.97  10 2.43   9 2.56
  18  0.075  0.487  0.070-   4 1.97   1 1.97   9 2.43  10 2.56
  19  0.726  0.307  0.126-   4 1.91   3 2.18   9 2.46  10 2.65  11 2.70
  20  0.774  0.807  0.126-   3 1.91   4 2.18  10 2.46   9 2.65  12 2.70
  21  0.226  0.193  0.146-   3 1.91   4 2.18  12 2.46  11 2.65  10 2.70
  22  0.274  0.693  0.146-   4 1.91   3 2.18  11 2.46  12 2.65   9 2.70
  23  0.575  0.013  0.202-   3 1.97   6 2.01  12 2.43  11 2.56
  24  0.925  0.513  0.202-   4 1.97   5 2.01  11 2.43  12 2.56
  25  0.289  0.696  0.256-   5 2.00   6 2.13  11 2.40  12 2.66  13 2.76
  26  0.211  0.196  0.256-   6 2.00   5 2.13  12 2.40  11 2.66  14 2.76
  27  0.792  0.808  0.278-   6 1.97   5 2.13  14 2.43  12 2.64  13 2.76
  28  0.708  0.308  0.278-   5 1.97   6 2.13  13 2.43  11 2.64  14 2.76
  29  0.430  0.004  0.333-   6 1.90   7 1.97  14 2.45  13 2.68
  30  0.070  0.504  0.333-   5 1.90   8 1.97  13 2.45  14 2.68
  31  0.719  0.301  0.388-   8 2.02   7 2.16  13 2.36  14 2.59
  32  0.781  0.801  0.388-   7 2.02   8 2.16  14 2.36  13 2.59
  33  0.213  0.192  0.408-   7 1.89   8 2.12  14 2.59
  34  0.287  0.692  0.408-   8 1.89   7 2.12  13 2.59
  35  0.000  0.398  0.470-  36 1.25   8 2.13
  36  0.000  0.602  0.456-  35 1.25   8 1.71
 
  LATTYP: Found a simple orthorhombic cell.
 ALAT       =     5.5367000000
 B/A-ratio  =     1.0380370979
 C/A-ratio  =     5.2541031011
  
  Lattice vectors:
  
 A1 = (   5.5367000000,   0.0000000000,   0.0000000000)
 A2 = (   0.0000000000,   5.7473000000,   0.0000000000)
 A3 = (   0.0000000000,   0.0000000000,  29.0903926400)


Analysis of symmetry for initial positions (statically):
=====================================================================
 Subroutine PRICEL returns:
 Original cell was already a primitive cell.
 

 Routine SETGRP: Setting up the symmetry group for a 
 simple orthorhombic supercell.


 Subroutine GETGRP returns: Found  1 space group operations
 (whereof  1 operations were pure point group operations)
 out of a pool of  8 trial point group operations.


The static configuration has the point symmetry C_1 .


Analysis of symmetry for dynamics (positions and initial velocities):
=====================================================================
 Subroutine PRICEL returns:
 Original cell was already a primitive cell.
 

 Routine SETGRP: Setting up the symmetry group for a 
 simple orthorhombic supercell.


 Subroutine GETGRP returns: Found  1 space group operations
 (whereof  1 operations were pure point group operations)
 out of a pool of  8 trial point group operations.


The dynamic configuration has the point symmetry C_1 .


Analysis of constrained symmetry for selective dynamics:
=====================================================================
 Subroutine PRICEL returns:
 Original cell was already a primitive cell.
 

 Routine SETGRP: Setting up the symmetry group for a 
 simple orthorhombic supercell.


 Subroutine GETGRP returns: Found  1 space group operations
 (whereof  1 operations were pure point group operations)
 out of a pool of  8 trial point group operations.


The constrained configuration has the point symmetry C_1 .


Analysis of structural, dynamic, and magnetic symmetry:
=====================================================================
 Subroutine PRICEL returns:
 Original cell was already a primitive cell.
 

 Routine SETGRP: Setting up the symmetry group for a 
 simple orthorhombic supercell.


 Subroutine GETGRP returns: Found  1 space group operations
 (whereof  1 operations were pure point group operations)
 out of a pool of  8 trial point group operations.


The overall configuration has the point symmetry C_1 .


 Subroutine INISYM returns: Found  1 space group operations
 (whereof  1 operations are pure point group operations),
 and found     1 'primitive' translations


----------------------------------------------------------------------------------------

                                     Primitive cell                                     

  volume of cell :     925.6876

  direct lattice vectors                    reciprocal lattice vectors
     5.536700000  0.000000000  0.000000000     0.180613001  0.000000000  0.000000000
     0.000000000  5.747300000  0.000000000     0.000000000  0.173994745  0.000000000
     0.000000000  0.000000000 29.090392640     0.000000000  0.000000000  0.034375610

  length of vectors
     5.536700000  5.747300000 29.090392640     0.180613001  0.173994745  0.034375610

  position of ions in fractional coordinates (direct lattice)
     0.000000000  0.500000000  0.003437561
     0.500000000  0.000000000  0.003437561
     0.500000000  0.000000000  0.135661627
     0.000000000  0.500000000  0.135661627
     0.999869288  0.499384381  0.269371256
     0.500130712  0.999384381  0.269371256
     0.489395868  0.003155030  0.400064527
     0.010604132  0.503155030  0.400064527
     0.507800000  0.549000000  0.069549594
     0.992200000  0.049000000  0.069549594
     0.492200000  0.451000000  0.201773660
     0.007800000  0.951000000  0.201773660
     0.509573887  0.544166459  0.335817371
     0.990426113  0.044166459  0.335817371
     0.774400000  0.806600000  0.013592369
     0.725600000  0.306600000  0.013592369
     0.425500000  0.987400000  0.069549594
     0.074500000  0.487400000  0.069549594
     0.725600000  0.306600000  0.125506819
     0.774400000  0.806600000  0.125506819
     0.225600000  0.193400000  0.145816435
     0.274400000  0.693400000  0.145816435
     0.574500000  0.012600000  0.201773660
     0.925500000  0.512600000  0.201773660
     0.288705330  0.696341168  0.256143619
     0.211294670  0.196341168  0.256143619
     0.792048047  0.807818652  0.277526194
     0.707951953  0.307818652  0.277526194
     0.429843379  0.003571190  0.333245042
     0.070156621  0.503571190  0.333245042
     0.719086704  0.301287230  0.387742702
     0.780913296  0.801287230  0.387742702
     0.213394579  0.192287266  0.408348745
     0.286605421  0.692287266  0.408348745
     0.000000000  0.398142114  0.470224844
     0.000000000  0.601857886  0.455575951

  ion indices of the primitive-cell ions
   primitive index   ion index
                 1           1
                 2           2
                 3           3
                 4           4
                 5           5
                 6           6
                 7           7
                 8           8
                 9           9
                10          10
                11          11
                12          12
                13          13
                14          14
                15          15
                16          16
                17          17
                18          18
                19          19
                20          20
                21          21
                22          22
                23          23
                24          24
                25          25
                26          26
                27          27
                28          28
                29          29
                30          30
                31          31
                32          32
                33          33
                34          34
                35          35
                36          36

----------------------------------------------------------------------------------------

 
 
 KPOINTS: KPOINTS created by Atomic Simulation Env

Automatic generation of k-mesh.
 Grid dimensions read from file:
 generate k-points for:    1    1    1

 Generating k-lattice:

  Cartesian coordinates                     Fractional coordinates (reciprocal lattice)
     0.180613001  0.000000000  0.000000000     1.000000000  0.000000000  0.000000000
     0.000000000  0.173994745  0.000000000     0.000000000  1.000000000  0.000000000
     0.000000000  0.000000000  0.034375610     0.000000000  0.000000000  1.000000000

  Length of vectors
     0.180613001  0.173994745  0.034375610

  Shift w.r.t. Gamma in fractional coordinates (k-lattice)
     0.000000000  0.000000000  0.000000000

 
 Subroutine IBZKPT returns following result:
 ===========================================
 
 Found      1 irreducible k-points:
 
 Following reciprocal coordinates:
            Coordinates               Weight
  0.000000  0.000000  0.000000      1.000000
 
 Following cartesian coordinates:
            Coordinates               Weight
  0.000000  0.000000  0.000000      1.000000
 


--------------------------------------------------------------------------------------------------------




 Dimension of arrays:
   k-points           NKPTS =      1   k-points in BZ     NKDIM =      1   number of bands    NBANDS=    190
   number of dos      NEDOS =    301   number of ions     NIONS =     36
   non local maximal  LDIM  =      8   non local SUM 2l+1 LMDIM =     32
   total plane-waves  NPLWV = 112896
   max r-space proj   IRMAX =   1808   max aug-charges    IRDMAX=   6572
   dimension x,y,z NGX =    28 NGY =   28 NGZ =  144
   dimension x,y,z NGXF=    56 NGYF=   56 NGZF=  288
   support grid    NGXF=    56 NGYF=   56 NGZF=  288
   ions per type =               8   6  22
   NGX,Y,Z   is equivalent  to a cutoff of   8.41,  8.10,  8.23 a.u.
   NGXF,Y,Z  is equivalent  to a cutoff of  16.81, 16.20, 16.46 a.u.

 SYSTEM =  unknown system                          
 POSCAR =  Cr La O                                 

 Startparameter for this run:
   NWRITE =      2    write-flag & timer
   PREC   = normal    normal or accurate (medium, high low for compatibility)
   ISTART =      0    job   : 0-new  1-cont  2-samecut
   ICHARG =      2    charge: 1-file 2-atom 10-const
   ISPIN  =      2    spin polarized calculation?
   LNONCOLLINEAR =      F non collinear calculations
   LSORBIT =      F    spin-orbit coupling
   INIWAV =      1    electr: 0-lowe 1-rand  2-diag
   LASPH  =      T    aspherical Exc in radial PAW
 Electronic Relaxation 1
   ENCUT  =  400.0 eV  29.40 Ry    5.42 a.u.   9.03  9.37 47.44*2*pi/ulx,y,z
   ENINI  =  400.0     initial cutoff
   ENAUG  =  605.4 eV  augmentation charge cutoff
   NELM   =     30;   NELMIN=  5; NELMDL=  0     # of ELM steps 
   EDIFF  = 0.1E-03   stopping-criterion for ELM
   LREAL  =      T    real-space projection
   NLSPLINE    = F    spline interpolate recip. space projectors
   LCOMPAT=      F    compatible to vasp.4.4
   GGA_COMPAT  = T    GGA compatible to vasp.4.4-vasp.4.6
   LMAXPAW     = -100 max onsite density
   LMAXMIX     =    6 max onsite mixed and CHGCAR
   VOSKOWN=      0    Vosko Wilk Nusair interpolation
   ROPT   =    0.00000   0.00000   0.00000
 Ionic relaxation
   EDIFFG = -.1E+00   stopping-criterion for IOM
   NSW    =      5    number of steps for IOM
   NBLOCK =      1;   KBLOCK =      5    inner block; outer block 
   IBRION =      2    ionic relax: 0-MD 1-quasi-New 2-CG
   NFREE  =      1    steps in history (QN), initial steepest desc. (CG)
   ISIF   =      2    stress and relaxation
   IWAVPR =     11    prediction:  0-non 1-charg 2-wave 3-comb
   ISYM   =      2    0-nonsym 1-usesym 2-fastsym
   LCORR  =      T    Harris-Foulkes like correction to forces

   POTIM  = 0.1500    time-step for ionic-motion
   TEIN   =    0.0    initial temperature
   TEBEG  =    0.0;   TEEND  =   0.0 temperature during run
   SMASS  =  -3.00    Nose mass-parameter (am)
   estimated Nose-frequenzy (Omega)   =  0.10E-29 period in steps = 0.42E+47 mass=  -0.701E-27a.u.
   SCALEE = 1.0000    scale energy and forces
   NPACO  =    256;   APACO  = 10.0  distance and # of slots for P.C.
   PSTRESS=    0.0 pullay stress

  Mass of Ions in am
   POMASS =  52.00138.90 16.00
  Ionic Valenz
   ZVAL   =  12.00 11.00  6.00
  Atomic Wigner-Seitz radii
   RWIGS  =  -1.00 -1.00 -1.00
  virtual crystal weights 
   VCA    =   1.00  1.00  1.00
   NELECT =     294.0000    total number of electrons
   NUPDOWN=      -1.0000    fix difference up-down

 DOS related values:
   EMIN   =  10.00;   EMAX   =-10.00  energy-range for DOS
   EFERMI =   0.00;   METHOD = LEGACY      
   ISMEAR =     0;   SIGMA  =   0.20  broadening in eV -4-tet -1-fermi 0-gaus

 Electronic relaxation 2 (details)
   IALGO  =     38    algorithm
   LDIAG  =      T    sub-space diagonalisation (order eigenvalues)
   LSUBROT=      F    optimize rotation matrix (better conditioning)
   TURBO    =      0    0=normal 1=particle mesh
   IRESTART =      0    0=no restart 2=restart with 2 vectors
   NREBOOT  =      0    no. of reboots
   NMIN     =      0    reboot dimension
   EREF     =   0.00    reference energy to select bands
   IMIX   =      4    mixing-type and parameters
     AMIX     =   0.40;   BMIX     =  1.00
     AMIX_MAG =   1.60;   BMIX_MAG =  1.00
     AMIN     =   0.10
     WC   =   100.;   INIMIX=   1;  MIXPRE=   1;  MAXMIX= -45

 Intra band minimization:
   WEIMIN = 0.0010     energy-eigenvalue tresh-hold
   EBREAK =  0.13E-06  absolut break condition
   DEPER  =   0.30     relativ break condition  

   TIME   =   0.40     timestep for ELM

  volume/ion in A,a.u.               =      25.71       173.52
  Fermi-wavevector in a.u.,A,eV,Ry     =   1.116955  2.110739 16.974481  1.247589
  Thomas-Fermi vector in A             =   2.253574
 
 Write flags
   LWAVE        =      F    write WAVECAR
   LDOWNSAMPLE  =      F    k-point downsampling of WAVECAR
   LCHARG       =      F    write CHGCAR
   LVTOT        =      F    write LOCPOT, total local potential
   LVHAR        =      F    write LOCPOT, Hartree potential only
   WRT_POTENTIAL= false  ! write potential to hdf5 file
   LELF         =      F    write electronic localiz. function (ELF)
   LORBIT       =     10    0 simple, 1 ext, 2 COOP (PROOUT), +10 PAW based schemes


 Dipole corrections
   LMONO      =      F    monopole corrections only (constant potential shift)
   LDIPOL     =      T    correct potential (dipole corrections)
   IDIPOL     =      3    1-x, 2-y, 3-z, 4-all directions 
   EPSILON    =  1.0000000 bulk dielectric constant
   LVACPOTAV  =      F  vacuum potentials using an averaging scheme for the charge density
   VACPOTFLAT =  0.1000000 required flatness to determine vacuum potential
 Exchange correlation treatment:
   GGA     = PE    functional components
   XC_C    = 1    coefficients multiplying the functional components
   LIBXC   =     F    Libxc                    
   VOSKOWN =     0    Vosko Wilk Nusair interpolation
   LHFCALC =     F    Hartree Fock is set to
   LHFONE  =     F    Hartree Fock one center treatment
   AEXX    =    0.0000 exact exchange contribution

 Parameters of functionals:
   PE:
     No parameter
 
 Van der Waals corrections
   IVDW    =     0    specifies the selected vdW correction

 Linear response parameters
   LEPSILON=     F    determine dielectric tensor
   LRPA    =     F    only Hartree local field effects (RPA)
   LNABLA  =     F    use nabla operator in PAW spheres
   LVEL    =     F    velocity operator in full k-point grid
   CSHIFT  =0.1000    complex shift for real part using Kramers Kronig
   OMEGAMAX=  -1.0    maximum frequency
   DEG_THRESHOLD= 0.2000000E-02 threshold for treating states as degnerate
   RTIME   =   -0.100 relaxation time in fs
  (WPLASMAI=    0.000 imaginary part of plasma frequency in eV, 0.658/RTIME)
   DFIELD  = 0.0000000 0.0000000 0.0000000 field for delta impulse in time
 
  Optional k-point grid parameters
   LKPOINTS_OPT  =     F    use optional k-point grid
   KPOINTS_OPT_MODE=     1    mode for optional k-point grid
 
 Orbital magnetization related:
   ORBITALMAG=     F  switch on orbital magnetization
   LCHIMAG   =     F  perturbation theory with respect to B field
   DQ        =  0.001000  dq finite difference perturbation B field
   LLRAUG    =     F  two centre corrections for induced B field
   LBONE     =     F  B-component reconstruction in AE one-centre
   LVGVCALC  =     T  calculate vGv susceptibility
   LVGVAPPL  =     F  apply vGv susceptibility instead of pGv for G=0

 Random number generation:
   RANDOM_GENERATOR = DEFAULT
   PCG_SEED         = not used


--------------------------------------------------------------------------------------------------------


 conjugate gradient relaxation of ions
   using selective dynamics as specified on POSCAR
   WARNING: If single coordinates had been selected the selection of coordinates
            is made according to the corresponding   d i r e c t   coordinates!
            Don't support selection of single cartesian coordinates -- sorry ...
  !
 charge density and potential will be updated during run
 spin polarized calculation
 Variant of blocked Davidson
 Davidson routine will perform the subspace rotation
 perform sub-space diagonalisation
    after iterative eigenvector-optimisation
 modified Broyden-mixing scheme, WC =      100.0
 initial mixing is a Kerker type mixing with AMIX =  0.4000 and BMIX =      1.0000
 Hartree-type preconditioning will be used
 using additional bands           43
 real space projection scheme for non local part
 use partial core corrections
 calculate Harris-corrections to forces 
   (improved forces if not selfconsistent)
 use gradient corrections 
 use of overlap-Matrix (Vanderbilt PP)
 Gauss-broadening in eV      SIGMA  =   0.20


--------------------------------------------------------------------------------------------------------


  energy-cutoff  :      400.00
  volume of cell :      925.69
      direct lattice vectors                 reciprocal lattice vectors
     5.536700000  0.000000000  0.000000000     0.180613001  0.000000000  0.000000000
     0.000000000  5.747300000  0.000000000     0.000000000  0.173994745  0.000000000
     0.000000000  0.000000000 29.090392640     0.000000000  0.000000000  0.034375610

  length of vectors
     5.536700000  5.747300000 29.090392640     0.180613001  0.173994745  0.034375610


 
 k-points in units of 2pi/SCALE and weight: KPOINTS created by Atomic Simulation Env
   0.00000000  0.00000000  0.00000000       1.000
 
 k-points in reciprocal lattice and weights: KPOINTS created by Atomic Simulation Env
   0.00000000  0.00000000  0.00000000       1.000
 
 position of ions in fractional coordinates (direct lattice) 
   0.00000000  0.50000000  0.00343756
   0.50000000  0.00000000  0.00343756
   0.50000000  0.00000000  0.13566163
   0.00000000  0.50000000  0.13566163
   0.99986929  0.49938438  0.26937126
   0.50013071  0.99938438  0.26937126
   0.48939587  0.00315503  0.40006453
   0.01060413  0.50315503  0.40006453
   0.50780000  0.54900000  0.06954959
   0.99220000  0.04900000  0.06954959
   0.49220000  0.45100000  0.20177366
   0.00780000  0.95100000  0.20177366
   0.50957389  0.54416646  0.33581737
   0.99042611  0.04416646  0.33581737
   0.77440000  0.80660000  0.01359237
   0.72560000  0.30660000  0.01359237
   0.42550000  0.98740000  0.06954959
   0.07450000  0.48740000  0.06954959
   0.72560000  0.30660000  0.12550682
   0.77440000  0.80660000  0.12550682
   0.22560000  0.19340000  0.14581644
   0.27440000  0.69340000  0.14581644
   0.57450000  0.01260000  0.20177366
   0.92550000  0.51260000  0.20177366
   0.28870533  0.69634117  0.25614362
   0.21129467  0.19634117  0.25614362
   0.79204805  0.80781865  0.27752619
   0.70795195  0.30781865  0.27752619
   0.42984338  0.00357119  0.33324504
   0.07015662  0.50357119  0.33324504
   0.71908670  0.30128723  0.38774270
   0.78091330  0.80128723  0.38774270
   0.21339458  0.19228727  0.40834875
   0.28660542  0.69228727  0.40834875
   0.00000000  0.39814211  0.47022484
   0.00000000  0.60185789  0.45557595
 
 position of ions in cartesian coordinates  (Angst):
   0.00000000  2.87365000  0.10000000
   2.76835000  0.00000000  0.10000000
   2.76835000  0.00000000  3.94645000
   0.00000000  2.87365000  3.94645000
   5.53597629  2.87011185  7.83611561
   2.76907371  5.74376185  7.83611561
   2.70963810  0.01813291 11.63803417
   0.05871190  2.89178291 11.63803417
   2.81153626  3.15526770  2.02322500
   5.49351374  0.28161770  2.02322500
   2.72516374  2.59203230  5.86967500
   0.04318626  5.46568230  5.86967500
   2.82135774  3.12748789  9.76905917
   5.48369226  0.25383789  9.76905917
   4.28762048  4.63577218  0.39540736
   4.01742952  1.76212218  0.39540736
   2.35586585  5.67488402  2.02322500
   0.41248415  2.80123402  2.02322500
   4.01742952  1.76212218  3.65104264
   4.28762048  4.63577218  3.65104264
   1.24907952  1.11152782  4.24185736
   1.51927048  3.98517782  4.24185736
   3.18083415  0.07241598  5.86967500
   5.12421585  2.94606598  5.86967500
   1.59847480  4.00208159  7.45131844
   1.16987520  1.12843159  7.45131844
   4.38533242  4.64277614  8.07334595
   3.91971758  1.76912614  8.07334595
   2.37991384  0.02052470  9.69422912
   0.38843616  2.89417470  9.69422912
   3.98136735  1.73158810 11.27958744
   4.32368265  4.60523810 11.27958744
   1.18150177  1.10513260 11.87902533
   1.58684823  3.97878260 11.87902533
   0.00000000  2.28824217 13.67902533
   0.00000000  3.45905783 13.25288328
 


--------------------------------------------------------------------------------------------------------


 k-point     1 :   0.0000 0.0000 0.0000  plane waves:   16779

 maximum and minimum number of plane-waves per node :      4200     4193

 maximum number of plane-waves:     16779
 maximum index in each direction: 
   IXMAX=    9   IYMAX=    9   IZMAX=   47
   IXMIN=   -9   IYMIN=   -9   IZMIN=  -47


 real space projection operators:
  total allocation   :       4007.12 KBytes
  max/ min on nodes  :       1007.19        998.92


 parallel 3D FFT for wavefunctions:
    minimum data exchange during FFTs selected (reduces bandwidth)
 parallel 3D FFT for charge:
    minimum data exchange during FFTs selected (reduces bandwidth)


 total amount of memory used by VASP MPI-rank0    42823. kBytes
=======================================================================

   base      :      30000. kBytes
   nonlr-proj:       2308. kBytes
   fftplans  :       1875. kBytes
   grid      :       5118. kBytes
   one-center:        884. kBytes
   wavefun   :       2638. kBytes
 
     INWAV:  cpu time      0.0001: real time      0.0002
 Broyden mixing: mesh for mixing (old mesh)
   NGX = 19   NGY = 19   NGZ = 95
  (NGX  = 56   NGY  = 56   NGZ  =288)
  gives a total of  34295 points

 initial charge density was supplied:
 charge density of overlapping atoms calculated
 number of electron     294.0000000 magnetization      10.0000000
 keeping initial charge density in first step


--------------------------------------------------------------------------------------------------------


 Maximum index for non-local projection operator          447
 Maximum index for augmentation-charges          402 (set IRDMAX)


--------------------------------------------------------------------------------------------------------


 First call to EWALD:  gamma=   0.182
 Maximum number of real-space cells 4x 4x 1
 Maximum number of reciprocal cells 2x 2x 7

    FEWALD:  cpu time      0.0017: real time      0.0017


--------------------------------------- Ionic step        1  -------------------------------------------




--------------------------------------- Iteration      1(   1)  ---------------------------------------


    POTLOK:  cpu time      0.0347: real time      0.0354
    SETDIJ:  cpu time      0.8458: real time      0.8478
     EDDAV:  cpu time      0.4040: real time      0.4053
       DOS:  cpu time      0.0009: real time      0.0010
    --------------------------------------------
      LOOP:  cpu time      1.2855: real time      1.2894

 eigenvalue-minimisations  :   800
 total energy-change (2. order) : 0.4562856E+04  (-0.1106557E+05)
 number of electron     294.0000000 magnetization      10.0000000
 augmentation part      294.0000000 magnetization      10.0000000

 DIPCOR: dipole corrections for dipol
 direction  3 min pos   213,
 dipolmoment           0.000000      0.000000      0.000152 electrons x Angstroem
 Tr[quadrupol]     -1850.118186

 energy correction for charged system         0.000000 eV
 dipol+quadrupol energy correction           -0.000000 eV
 added-field ion interaction          0.003874 eV  (added to PSCEN)


 Free energy of the ion-electron system (eV)
  ---------------------------------------------------
  alpha Z        PSCENC =       614.47866018
  Ewald energy   TEWEN  =    142063.08803817
  -Hartree energ DENC   =   -167136.27315147
  -exchange      EXHF   =         0.00000000
  -V(xc)+E(xc)   XCENC  =      1234.74689852
  PAW double counting   =     21946.09436712   -22368.83934981
  entropy T*S    EENTRO =        -0.21663604
  eigenvalues    EBANDS =       321.03344689
  atomic energy  EATOM  =     27888.74374147
  Solvation  Ediel_sol  =         0.00000000
  ---------------------------------------------------
  free energy    TOTEN  =      4562.85601501 eV

  energy without entropy =     4563.07265106  energy(sigma->0) =     4562.96433304


--------------------------------------------------------------------------------------------------------




--------------------------------------- Iteration      1(   2)  ---------------------------------------


     EDDAV:  cpu time      0.3958: real time      0.4035
       DOS:  cpu time      0.0003: real time      0.0003
    --------------------------------------------
      LOOP:  cpu time      0.3961: real time      0.4038

 eigenvalue-minimisations  :   840
 total energy-change (2. order) :-0.3598391E+04  (-0.3318375E+04)
 number of electron     294.0000000 magnetization      10.0000000
 augmentation part      294.0000000 magnetization      10.0000000

 DIPCOR: dipole corrections for dipol
 direction  3 min pos   213,
 dipolmoment           0.000000      0.000000      0.000152 electrons x Angstroem
 Tr[quadrupol]     -1850.118186

 energy correction for charged system         0.000000 eV
 dipol+quadrupol energy correction           -0.000000 eV
 added-field ion interaction          0.003874 eV  (added to PSCEN)


 Free energy of the ion-electron system (eV)
  ---------------------------------------------------
  alpha Z        PSCENC =       614.47866018
  Ewald energy   TEWEN  =    142063.08803817
  -Hartree energ DENC   =   -167136.27315147
  -exchange      EXHF   =         0.00000000
  -V(xc)+E(xc)   XCENC  =      1234.74689852
  PAW double counting   =     21946.09436712   -22368.83934981
  entropy T*S    EENTRO =        -0.58952188
  eigenvalues    EBANDS =     -3276.98427976
  atomic energy  EATOM  =     27888.74374147
  Solvation  Ediel_sol  =         0.00000000
  ---------------------------------------------------
  free energy    TOTEN  =       964.46540252 eV

  energy without entropy =      965.05492441  energy(sigma->0) =      964.76016346


--------------------------------------------------------------------------------------------------------




--------------------------------------- Iteration      1(   3)  ---------------------------------------


     EDDAV:  cpu time      0.4699: real time      0.4783
       DOS:  cpu time      0.0003: real time      0.0003
    --------------------------------------------
      LOOP:  cpu time      0.4702: real time      0.4786

 eigenvalue-minimisations  :  1020
 total energy-change (2. order) :-0.1135519E+04  (-0.1085667E+04)
 number of electron     294.0000000 magnetization      10.0000000
 augmentation part      294.0000000 magnetization      10.0000000

 DIPCOR: dipole corrections for dipol
 direction  3 min pos   213,
 dipolmoment           0.000000      0.000000      0.000152 electrons x Angstroem
 Tr[quadrupol]     -1850.118186

 energy correction for charged system         0.000000 eV
 dipol+quadrupol energy correction           -0.000000 eV
 added-field ion interaction          0.003874 eV  (added to PSCEN)


 Free energy of the ion-electron system (eV)
  ---------------------------------------------------
  alpha Z        PSCENC =       614.47866018
  Ewald energy   TEWEN  =    142063.08803817
  -Hartree energ DENC   =   -167136.27315147
  -exchange      EXHF   =         0.00000000
  -V(xc)+E(xc)   XCENC  =      1234.74689852
  PAW double counting   =     21946.09436712   -22368.83934981
  entropy T*S    EENTRO =        -1.25495874
  eigenvalues    EBANDS =     -4411.83768734
  atomic energy  EATOM  =     27888.74374147
  Solvation  Ediel_sol  =         0.00000000
  ---------------------------------------------------
  free energy    TOTEN  =      -171.05344192 eV

  energy without entropy =     -169.79848318  energy(sigma->0) =     -170.42596255


--------------------------------------------------------------------------------------------------------




--------------------------------------- Iteration      1(   4)  ---------------------------------------


     EDDAV:  cpu time      0.5449: real time      0.5546
       DOS:  cpu time      0.0003: real time      0.0003
    --------------------------------------------
      LOOP:  cpu time      0.5452: real time      0.5549

 eigenvalue-minimisations  :  1220
 total energy-change (2. order) :-0.1788331E+03  (-0.1722784E+03)
 number of electron     294.0000000 magnetization      10.0000000
 augmentation part      294.0000000 magnetization      10.0000000

 DIPCOR: dipole corrections for dipol
 direction  3 min pos   213,
 dipolmoment           0.000000      0.000000      0.000152 electrons x Angstroem
 Tr[quadrupol]     -1850.118186

 energy correction for charged system         0.000000 eV
 dipol+quadrupol energy correction           -0.000000 eV
 added-field ion interaction          0.003874 eV  (added to PSCEN)


 Free energy of the ion-electron system (eV)
  ---------------------------------------------------
  alpha Z        PSCENC =       614.47866018
  Ewald energy   TEWEN  =    142063.08803817
  -Hartree energ DENC   =   -167136.27315147
  -exchange      EXHF   =         0.00000000
  -V(xc)+E(xc)   XCENC  =      1234.74689852
  PAW double counting   =     21946.09436712   -22368.83934981
  entropy T*S    EENTRO =        -1.67078459
  eigenvalues    EBANDS =     -4590.25498306
  atomic energy  EATOM  =     27888.74374147
  Solvation  Ediel_sol  =         0.00000000
  ---------------------------------------------------
  free energy    TOTEN  =      -349.88656347 eV

  energy without entropy =     -348.21577889  energy(sigma->0) =     -349.05117118


--------------------------------------------------------------------------------------------------------




--------------------------------------- Iteration      1(   5)  ---------------------------------------


     EDDAV:  cpu time      0.6118: real time      0.6216
       DOS:  cpu time      0.0003: real time      0.0003
    CHARGE:  cpu time      0.0196: real time      0.0197
    MIXING:  cpu time      0.0028: real time      0.0028
    --------------------------------------------
      LOOP:  cpu time      0.6346: real time      0.6444

 eigenvalue-minimisations  :  1380
 total energy-change (2. order) :-0.1699482E+02  (-0.1553819E+02)
 number of electron     294.0000221 magnetization       9.4403785
 augmentation part       49.3043189 magnetization       8.5177191

 DIPCOR: dipole corrections for dipol
 direction  3 min pos   213,
 dipolmoment           0.000000      0.000000      0.000152 electrons x Angstroem
 Tr[quadrupol]     -1850.118186

 energy correction for charged system         0.000000 eV
 dipol+quadrupol energy correction           -0.000000 eV
 added-field ion interaction          0.003874 eV  (added to PSCEN)


 Broyden mixing:
  rms(total) = 0.86092E+01    rms(broyden)= 0.86078E+01
  rms(prec ) = 0.91425E+01
  weight for this iteration     100.00

 Free energy of the ion-electron system (eV)
  ---------------------------------------------------
  alpha Z        PSCENC =       614.47866018
  Ewald energy   TEWEN  =    142063.08803817
  -Hartree energ DENC   =   -167136.27315147
  -exchange      EXHF   =         0.00000000
  -V(xc)+E(xc)   XCENC  =      1234.74689852
  PAW double counting   =     21946.09436712   -22368.83934981
  entropy T*S    EENTRO =        -1.34969496
  eigenvalues    EBANDS =     -4607.57088773
  atomic energy  EATOM  =     27888.74374147
  Solvation  Ediel_sol  =         0.00000000
  ---------------------------------------------------
  free energy    TOTEN  =      -366.88137853 eV

  energy without entropy =     -365.53168356  energy(sigma->0) =     -366.20653105


--------------------------------------------------------------------------------------------------------




--------------------------------------- Iteration      1(   6)  ---------------------------------------


    POTLOK:  cpu time      0.0308: real time      0.0395
    SETDIJ:  cpu time      0.9081: real time      0.9101
     EDDAV:  cpu time      0.5695: real time      0.5709
       DOS:  cpu time      0.0003: real time      0.0005
    CHARGE:  cpu time      0.0165: real time      0.0165
    MIXING:  cpu time      0.0018: real time      0.0018
    --------------------------------------------
      LOOP:  cpu time      1.5269: real time      1.5393

 eigenvalue-minimisations  :  1260
 total energy-change (2. order) :-0.2341577E+03  (-0.5114623E+03)
 number of electron     293.9999735 magnetization       9.3856304
 augmentation part       78.2971113 magnetization       6.2008388

 DIPCOR: dipole corrections for dipol
 direction  3 min pos   211,
 dipolmoment           0.000000      0.000000      1.782674 electrons x Angstroem
 Tr[quadrupol]     -1876.010931

 energy correction for charged system         0.000000 eV
 dipol+quadrupol energy correction           -0.310610 eV
 added-field ion interaction         24.606506 eV  (added to PSCEN)


 Broyden mixing:
  rms(total) = 0.30980E+02    rms(broyden)= 0.30978E+02
  rms(prec ) = 0.32357E+02
  weight for this iteration     100.00

 eigenvalues of (default mixing * dielectric matrix)
  average eigenvalue GAMMA=   0.0965
  0.0965

 Free energy of the ion-electron system (eV)
  ---------------------------------------------------
  alpha Z        PSCENC =       638.77068275
  Ewald energy   TEWEN  =    142063.08803817
  -Hartree energ DENC   =   -167465.24121129
  -exchange      EXHF   =         0.00000000
  -V(xc)+E(xc)   XCENC  =      1237.58949076
  PAW double counting   =     23361.01225747   -23765.72827370
  entropy T*S    EENTRO =        -0.30492826
  eigenvalues    EBANDS =     -4558.96890588
  atomic energy  EATOM  =     27888.74374147
  Solvation  Ediel_sol  =         0.00000000
  ---------------------------------------------------
  free energy    TOTEN  =      -601.03910852 eV

  energy without entropy =     -600.73418026  energy(sigma->0) =     -600.88664439


--------------------------------------------------------------------------------------------------------




--------------------------------------- Iteration      1(   7)  ---------------------------------------


    POTLOK:  cpu time      0.0305: real time      0.0390
    SETDIJ:  cpu time      0.9055: real time      0.9078
     EDDAV:  cpu time      0.6109: real time      0.6121
       DOS:  cpu time      0.0003: real time      0.0003
    CHARGE:  cpu time      0.0159: real time      0.0159
    MIXING:  cpu time      0.0012: real time      0.0012
    --------------------------------------------
      LOOP:  cpu time      1.5643: real time      1.5764

 eigenvalue-minimisations  :  1380
 total energy-change (2. order) : 0.1666323E+03  (-0.1516770E+03)
 number of electron     293.9999809 magnetization       9.2951199
 augmentation part       71.6947533 magnetization       7.8603230

 DIPCOR: dipole corrections for dipol
 direction  3 min pos   208,
 dipolmoment           0.000000      0.000000     -0.479316 electrons x Angstroem
 Tr[quadrupol]     -1866.217090

 energy correction for charged system         0.000000 eV
 dipol+quadrupol energy correction           -0.022455 eV
 added-field ion interaction          1.731290 eV  (added to PSCEN)


 Broyden mixing:
  rms(total) = 0.19008E+02    rms(broyden)= 0.19007E+02
  rms(prec ) = 0.20235E+02
  weight for this iteration     100.00

 eigenvalues of (default mixing * dielectric matrix)
  average eigenvalue GAMMA=   0.1926
  0.1926  0.1926

 Free energy of the ion-electron system (eV)
  ---------------------------------------------------
  alpha Z        PSCENC =       616.18362115
  Ewald energy   TEWEN  =    142063.08803817
  -Hartree energ DENC   =   -167319.95514996
  -exchange      EXHF   =         0.00000000
  -V(xc)+E(xc)   XCENC  =      1240.10131036
  PAW double counting   =     25748.74098094   -26172.79543262
  entropy T*S    EENTRO =        -0.35452997
  eigenvalues    EBANDS =     -4498.15935289
  atomic energy  EATOM  =     27888.74374147
  Solvation  Ediel_sol  =         0.00000000
  ---------------------------------------------------
  free energy    TOTEN  =      -434.40677337 eV

  energy without entropy =     -434.05224339  energy(sigma->0) =     -434.22950838


--------------------------------------------------------------------------------------------------------




--------------------------------------- Iteration      1(   8)  ---------------------------------------


    POTLOK:  cpu time      0.0295: real time      0.0382
    SETDIJ:  cpu time      0.9044: real time      0.9065
     EDDAV:  cpu time      0.6371: real time      0.6383
       DOS:  cpu time      0.0006: real time      0.0006
    CHARGE:  cpu time      0.0165: real time      0.0165
    MIXING:  cpu time      0.0013: real time      0.0013
    --------------------------------------------
      LOOP:  cpu time      1.5895: real time      1.6015

 eigenvalue-minimisations  :  1360
 total energy-change (2. order) :-0.4370117E+03  (-0.2433573E+03)
 number of electron     293.9999970 magnetization       9.2952651
 augmentation part       58.8150267 magnetization       8.3841300

 DIPCOR: dipole corrections for dipol
 direction  3 min pos   206,
 dipolmoment           0.000000      0.000000      3.921471 electrons x Angstroem
 Tr[quadrupol]     -1863.077476

 energy correction for charged system         0.000000 eV
 dipol+quadrupol energy correction           -1.503036 eV
 added-field ion interaction        -59.693026 eV  (added to PSCEN)


 Broyden mixing:
  rms(total) = 0.11313E+03    rms(broyden)= 0.11313E+03
  rms(prec ) = 0.11476E+03
  weight for this iteration     100.00

 eigenvalues of (default mixing * dielectric matrix)
  average eigenvalue GAMMA=   0.1332
  0.1948  0.1948  0.0101

 Free energy of the ion-electron system (eV)
  ---------------------------------------------------
  alpha Z        PSCENC =       553.27872415
  Ewald energy   TEWEN  =    142063.08803817
  -Hartree energ DENC   =   -167391.61389842
  -exchange      EXHF   =         0.00000000
  -V(xc)+E(xc)   XCENC  =      1241.98432658
  PAW double counting   =     27807.61710003   -28241.40537226
  entropy T*S    EENTRO =        -0.30982060
  eigenvalues    EBANDS =     -4792.80128062
  atomic energy  EATOM  =     27888.74374147
  Solvation  Ediel_sol  =         0.00000000
  ---------------------------------------------------
  free energy    TOTEN  =      -871.41844150 eV

  energy without entropy =     -871.10862090  energy(sigma->0) =     -871.26353120


--------------------------------------------------------------------------------------------------------




--------------------------------------- Iteration      1(   9)  ---------------------------------------


    POTLOK:  cpu time      0.0306: real time      0.0391
    SETDIJ:  cpu time      0.9049: real time      0.9071
     EDDAV:  cpu time      0.6369: real time      0.6382
       DOS:  cpu time      0.0003: real time      0.0003
    CHARGE:  cpu time      0.0162: real time      0.0162
    MIXING:  cpu time      0.0013: real time      0.0013
    --------------------------------------------
      LOOP:  cpu time      1.5902: real time      1.6022

 eigenvalue-minimisations  :  1440
 total energy-change (2. order) :-0.2054077E+03  (-0.1113331E+03)
 number of electron     293.9999916 magnetization       9.2634245
 augmentation part       57.1661908 magnetization       6.2096929

 DIPCOR: dipole corrections for dipol
 direction  3 min pos   207,
 dipolmoment           0.000000      0.000000      4.258726 electrons x Angstroem
 Tr[quadrupol]     -1863.493182

 energy correction for charged system         0.000000 eV
 dipol+quadrupol energy correction           -1.772682 eV
 added-field ion interaction        -40.104636 eV  (added to PSCEN)


 Broyden mixing:
  rms(total) = 0.14723E+03    rms(broyden)= 0.14723E+03
  rms(prec ) = 0.14905E+03
  weight for this iteration     100.00

 eigenvalues of (default mixing * dielectric matrix)
  average eigenvalue GAMMA=   0.1077
  0.1971  0.1971  0.0182  0.0182

 Free energy of the ion-electron system (eV)
  ---------------------------------------------------
  alpha Z        PSCENC =       572.59746839
  Ewald energy   TEWEN  =    142063.08803817
  -Hartree energ DENC   =   -167392.87167581
  -exchange      EXHF   =         0.00000000
  -V(xc)+E(xc)   XCENC  =      1242.51690473
  PAW double counting   =     26386.71962997   -26822.08254233
  entropy T*S    EENTRO =        -0.56146417
  eigenvalues    EBANDS =     -5014.97628249
  atomic energy  EATOM  =     27888.74374147
  Solvation  Ediel_sol  =         0.00000000
  ---------------------------------------------------
  free energy    TOTEN  =     -1076.82618208 eV

  energy without entropy =    -1076.26471790  energy(sigma->0) =    -1076.54544999


--------------------------------------------------------------------------------------------------------




--------------------------------------- Iteration      1(  10)  ---------------------------------------


    POTLOK:  cpu time      0.0298: real time      0.0385
    SETDIJ:  cpu time      0.9047: real time      0.9068
     EDDAV:  cpu time      0.6623: real time      0.6636
       DOS:  cpu time      0.0003: real time      0.0003
    CHARGE:  cpu time      0.0164: real time      0.0164
    MIXING:  cpu time      0.0013: real time      0.0013
    --------------------------------------------
      LOOP:  cpu time      1.6148: real time      1.6268

 eigenvalue-minimisations  :  1500
 total energy-change (2. order) :-0.3609571E+02  (-0.2157314E+02)
 number of electron     293.9999911 magnetization       9.2489389
 augmentation part       56.5124817 magnetization       5.7101764

 DIPCOR: dipole corrections for dipol
 direction  3 min pos   208,
 dipolmoment           0.000000      0.000000      4.278042 electrons x Angstroem
 Tr[quadrupol]     -1866.624876

 energy correction for charged system         0.000000 eV
 dipol+quadrupol energy correction           -1.788800 eV
 added-field ion interaction        -15.452295 eV  (added to PSCEN)


 Broyden mixing:
  rms(total) = 0.15036E+03    rms(broyden)= 0.15036E+03
  rms(prec ) = 0.15253E+03
  weight for this iteration     100.00

 eigenvalues of (default mixing * dielectric matrix)
  average eigenvalue GAMMA=   0.0918
  0.1969  0.1969  0.0271  0.0271  0.0111

 Free energy of the ion-electron system (eV)
  ---------------------------------------------------
  alpha Z        PSCENC =       597.23369152
  Ewald energy   TEWEN  =    142063.08803817
  -Hartree energ DENC   =   -167465.76506921
  -exchange      EXHF   =         0.00000000
  -V(xc)+E(xc)   XCENC  =      1242.39684980
  PAW double counting   =     26648.76698524   -27085.17722388
  entropy T*S    EENTRO =        -0.45230715
  eigenvalues    EBANDS =     -5001.75659366
  atomic energy  EATOM  =     27888.74374147
  Solvation  Ediel_sol  =         0.00000000
  ---------------------------------------------------
  free energy    TOTEN  =     -1112.92188771 eV

  energy without entropy =    -1112.46958056  energy(sigma->0) =    -1112.69573413


--------------------------------------------------------------------------------------------------------




--------------------------------------- Iteration      1(  11)  ---------------------------------------


    POTLOK:  cpu time      0.0296: real time      0.0380
    SETDIJ:  cpu time      0.9074: real time      0.9095
     EDDAV:  cpu time      0.5791: real time      0.5802
       DOS:  cpu time      0.0004: real time      0.0004
    CHARGE:  cpu time      0.0164: real time      0.0165
    MIXING:  cpu time      0.0013: real time      0.0013
    --------------------------------------------
      LOOP:  cpu time      1.5342: real time      1.5459

 eigenvalue-minimisations  :  1300
 total energy-change (2. order) : 0.7195710E+02  (-0.8068349E+01)
 number of electron     293.9999930 magnetization       9.2398269
 augmentation part       53.3935588 magnetization       5.5575134

 DIPCOR: dipole corrections for dipol
 direction  3 min pos   209,
 dipolmoment           0.000000      0.000000      4.015634 electrons x Angstroem
 Tr[quadrupol]     -1865.665785

 energy correction for charged system         0.000000 eV
 dipol+quadrupol energy correction           -1.576085 eV
 added-field ion interaction          8.806478 eV  (added to PSCEN)


 Broyden mixing:
  rms(total) = 0.16446E+03    rms(broyden)= 0.16446E+03
  rms(prec ) = 0.16632E+03
  weight for this iteration     100.00

 eigenvalues of (default mixing * dielectric matrix)
  average eigenvalue GAMMA=   0.0778
  0.1968  0.1968  0.0279  0.0279  0.0133  0.0041

 Free energy of the ion-electron system (eV)
  ---------------------------------------------------
  alpha Z        PSCENC =       621.70517935
  Ewald energy   TEWEN  =    142063.08803817
  -Hartree energ DENC   =   -167426.26552205
  -exchange      EXHF   =         0.00000000
  -V(xc)+E(xc)   XCENC  =      1242.18227463
  PAW double counting   =     27196.08909425   -27632.72655265
  entropy T*S    EENTRO =        -0.46246322
  eigenvalues    EBANDS =     -4993.31857524
  atomic energy  EATOM  =     27888.74374147
  Solvation  Ediel_sol  =         0.00000000
  ---------------------------------------------------
  free energy    TOTEN  =     -1040.96478529 eV

  energy without entropy =    -1040.50232207  energy(sigma->0) =    -1040.73355368


--------------------------------------------------------------------------------------------------------




--------------------------------------- Iteration      1(  12)  ---------------------------------------


    POTLOK:  cpu time      0.0296: real time      0.0378
    SETDIJ:  cpu time      0.9075: real time      0.9095
     EDDAV:  cpu time      0.6553: real time      0.6566
       DOS:  cpu time      0.0004: real time      0.0005
    CHARGE:  cpu time      0.0170: real time      0.0171
    MIXING:  cpu time      0.0016: real time      0.0016
    --------------------------------------------
      LOOP:  cpu time      1.6113: real time      1.6230

 eigenvalue-minimisations  :  1440
 total energy-change (2. order) : 0.7986680E+02  (-0.7532712E+01)
 number of electron     293.9999933 magnetization       9.2020125
 augmentation part       52.3562651 magnetization       5.4751845

 DIPCOR: dipole corrections for dipol
 direction  3 min pos   210,
 dipolmoment           0.000000      0.000000      3.723217 electrons x Angstroem
 Tr[quadrupol]     -1864.241167

 energy correction for charged system         0.000000 eV
 dipol+quadrupol energy correction           -1.354903 eV
 added-field ion interaction         29.778651 eV  (added to PSCEN)


 Broyden mixing:
  rms(total) = 0.18492E+03    rms(broyden)= 0.18492E+03
  rms(prec ) = 0.18636E+03
  weight for this iteration     100.00

 eigenvalues of (default mixing * dielectric matrix)
  average eigenvalue GAMMA=   0.0795
  0.1941  0.1941  0.0533  0.0533  0.0263  0.0177  0.0177

 Free energy of the ion-electron system (eV)
  ---------------------------------------------------
  alpha Z        PSCENC =       642.89853477
  Ewald energy   TEWEN  =    142063.08803817
  -Hartree energ DENC   =   -167370.80820344
  -exchange      EXHF   =         0.00000000
  -V(xc)+E(xc)   XCENC  =      1241.97735325
  PAW double counting   =     26565.89046684   -27002.72152775
  entropy T*S    EENTRO =        -0.29824771
  eigenvalues    EBANDS =     -4989.86813769
  atomic energy  EATOM  =     27888.74374147
  Solvation  Ediel_sol  =         0.00000000
  ---------------------------------------------------
  free energy    TOTEN  =      -961.09798209 eV

  energy without entropy =     -960.79973438  energy(sigma->0) =     -960.94885823


--------------------------------------------------------------------------------------------------------




--------------------------------------- Iteration      1(  13)  ---------------------------------------


    POTLOK:  cpu time      0.0305: real time      0.0396
    SETDIJ:  cpu time      0.9048: real time      0.9071
     EDDAV:  cpu time      0.5250: real time      0.5261
       DOS:  cpu time      0.0003: real time      0.0003
    CHARGE:  cpu time      0.0160: real time      0.0160
    MIXING:  cpu time      0.0015: real time      0.0015
    --------------------------------------------
      LOOP:  cpu time      1.4781: real time      1.4906

 eigenvalue-minimisations  :  1160
 total energy-change (2. order) : 0.2868440E+03  (-0.2661472E+02)
 number of electron     294.0000035 magnetization       9.2063139
 augmentation part       55.2146893 magnetization       6.5778926

 DIPCOR: dipole corrections for dipol
 direction  3 min pos   207,
 dipolmoment           0.000000      0.000000      2.367543 electrons x Angstroem
 Tr[quadrupol]     -1852.816271

 energy correction for charged system         0.000000 eV
 dipol+quadrupol energy correction           -0.547857 eV
 added-field ion interaction        -22.295273 eV  (added to PSCEN)


 Broyden mixing:
  rms(total) = 0.20718E+03    rms(broyden)= 0.20718E+03
  rms(prec ) = 0.20793E+03
  weight for this iteration     100.00

 eigenvalues of (default mixing * dielectric matrix)
  average eigenvalue GAMMA=   0.0763
  0.1952  0.1952  0.0566  0.0566  0.0296  0.0290  0.0241  0.0241

 Free energy of the ion-electron system (eV)
  ---------------------------------------------------
  alpha Z        PSCENC =       591.63165574
  Ewald energy   TEWEN  =    142063.08803817
  -Hartree energ DENC   =   -167094.39619485
  -exchange      EXHF   =         0.00000000
  -V(xc)+E(xc)   XCENC  =      1241.33385816
  PAW double counting   =     27025.45165046   -27462.70838278
  entropy T*S    EENTRO =        -0.38287875
  eigenvalues    EBANDS =     -4927.01550845
  atomic energy  EATOM  =     27888.74374147
  Solvation  Ediel_sol  =         0.00000000
  ---------------------------------------------------
  free energy    TOTEN  =      -674.25402084 eV

  energy without entropy =     -673.87114210  energy(sigma->0) =     -674.06258147


--------------------------------------------------------------------------------------------------------




--------------------------------------- Iteration      1(  14)  ---------------------------------------


    POTLOK:  cpu time      0.0299: real time      0.0389
    SETDIJ:  cpu time      0.9044: real time      0.9065
     EDDAV:  cpu time      0.5673: real time      0.5684
       DOS:  cpu time      0.0003: real time      0.0003
    CHARGE:  cpu time      0.0157: real time      0.0158
    MIXING:  cpu time      0.0017: real time      0.0017
    --------------------------------------------
      LOOP:  cpu time      1.5193: real time      1.5315

 eigenvalue-minimisations  :  1280
 total energy-change (2. order) : 0.1880986E+03  (-0.2853012E+02)
 number of electron     294.0000083 magnetization       9.1965522
 augmentation part       62.0622313 magnetization       8.7956286

 DIPCOR: dipole corrections for dipol
 direction  3 min pos   205,
 dipolmoment           0.000000      0.000000      0.694094 electrons x Angstroem
 Tr[quadrupol]     -1841.238681

 energy correction for charged system         0.000000 eV
 dipol+quadrupol energy correction           -0.047088 eV
 added-field ion interaction        -14.594824 eV  (added to PSCEN)


 Broyden mixing:
  rms(total) = 0.14862E+03    rms(broyden)= 0.14862E+03
  rms(prec ) = 0.14910E+03
  weight for this iteration     100.00

 eigenvalues of (default mixing * dielectric matrix)
  average eigenvalue GAMMA=   0.1105
  0.2807  0.2807  0.1225  0.0936  0.0697  0.0697  0.0314  0.0231  0.0231

 Free energy of the ion-electron system (eV)
  ---------------------------------------------------
  alpha Z        PSCENC =       599.83287428
  Ewald energy   TEWEN  =    142063.08803817
  -Hartree energ DENC   =   -166806.52349664
  -exchange      EXHF   =         0.00000000
  -V(xc)+E(xc)   XCENC  =      1239.92825064
  PAW double counting   =     26796.90174590   -27232.85889364
  entropy T*S    EENTRO =        -0.11642658
  eigenvalues    EBANDS =     -5035.15122909
  atomic energy  EATOM  =     27888.74374147
  Solvation  Ediel_sol  =         0.00000000
  ---------------------------------------------------
  free energy    TOTEN  =      -486.15539550 eV

  energy without entropy =     -486.03896892  energy(sigma->0) =     -486.09718221


--------------------------------------------------------------------------------------------------------




--------------------------------------- Iteration      1(  15)  ---------------------------------------


    POTLOK:  cpu time      0.0297: real time      0.0387
    SETDIJ:  cpu time      0.9045: real time      0.9066
     EDDAV:  cpu time      0.5625: real time      0.5636
       DOS:  cpu time      0.0003: real time      0.0003
    CHARGE:  cpu time      0.0157: real time      0.0157
    MIXING:  cpu time      0.0015: real time      0.0015
    --------------------------------------------
      LOOP:  cpu time      1.5143: real time      1.5265

 eigenvalue-minimisations  :  1260
 total energy-change (2. order) : 0.1092057E+03  (-0.3380113E+03)
 number of electron     293.9999976 magnetization       9.1984115
 augmentation part       61.0496991 magnetization       7.4815430

 DIPCOR: dipole corrections for dipol
 direction  3 min pos   203,
 dipolmoment           0.000000      0.000000     -3.736949 electrons x Angstroem
 Tr[quadrupol]     -1846.871214

 energy correction for charged system         0.000000 eV
 dipol+quadrupol energy correction           -1.364916 eV
 added-field ion interaction        121.963738 eV  (added to PSCEN)


 Broyden mixing:
  rms(total) = 0.18504E+02    rms(broyden)= 0.18503E+02
  rms(prec ) = 0.20239E+02
  weight for this iteration     100.00

 eigenvalues of (default mixing * dielectric matrix)
  average eigenvalue GAMMA=   0.1004
  0.2773  0.2773  0.1212  0.0932  0.0711  0.0711  0.0315  0.0232  0.0232  0.0150

 Free energy of the ion-electron system (eV)
  ---------------------------------------------------
  alpha Z        PSCENC =       735.07360822
  Ewald energy   TEWEN  =    142063.08803817
  -Hartree energ DENC   =   -166945.01673723
  -exchange      EXHF   =         0.00000000
  -V(xc)+E(xc)   XCENC  =      1242.95555732
  PAW double counting   =     25665.95814327   -26110.95466443
  entropy T*S    EENTRO =        -0.26263711
  eigenvalues    EBANDS =     -4916.53473469
  atomic energy  EATOM  =     27888.74374147
  Solvation  Ediel_sol  =         0.00000000
  ---------------------------------------------------
  free energy    TOTEN  =      -376.94968500 eV

  energy without entropy =     -376.68704789  energy(sigma->0) =     -376.81836645


--------------------------------------------------------------------------------------------------------




--------------------------------------- Iteration      1(  16)  ---------------------------------------


    POTLOK:  cpu time      0.0378: real time      0.0380
    SETDIJ:  cpu time      0.9067: real time      0.9087
     EDDAV:  cpu time      0.6602: real time      0.6615
       DOS:  cpu time      0.0003: real time      0.0003
    CHARGE:  cpu time      0.0158: real time      0.0158
    MIXING:  cpu time      0.0016: real time      0.0016
    --------------------------------------------
      LOOP:  cpu time      1.6223: real time      1.6259

 eigenvalue-minimisations  :  1500
 total energy-change (2. order) :-0.1964843E+03  (-0.1784729E+03)
 number of electron     294.0000003 magnetization       9.0772201
 augmentation part       59.3545995 magnetization       6.5743927

 DIPCOR: dipole corrections for dipol
 direction  3 min pos   202,
 dipolmoment           0.000000      0.000000     -3.680700 electrons x Angstroem
 Tr[quadrupol]     -1847.817202

 energy correction for charged system         0.000000 eV
 dipol+quadrupol energy correction           -1.324135 eV
 added-field ion interaction        141.494574 eV  (added to PSCEN)


 Broyden mixing:
  rms(total) = 0.13661E+02    rms(broyden)= 0.13660E+02
  rms(prec ) = 0.17362E+02
  weight for this iteration     100.00

 eigenvalues of (default mixing * dielectric matrix)
  average eigenvalue GAMMA=   0.1139
  0.2841  0.2762  0.2762  0.0940  0.0998  0.0668  0.0668  0.0317  0.0231  0.0231
  0.0110

 Free energy of the ion-electron system (eV)
  ---------------------------------------------------
  alpha Z        PSCENC =       754.64522491
  Ewald energy   TEWEN  =    142063.08803817
  -Hartree energ DENC   =   -166943.04840940
  -exchange      EXHF   =         0.00000000
  -V(xc)+E(xc)   XCENC  =      1242.98275170
  PAW double counting   =     25646.78062749   -26091.71013634
  entropy T*S    EENTRO =        -0.21969380
  eigenvalues    EBANDS =     -5134.69609306
[...]
   28        1.571   3.495   0.000   0.000   5.066
   29        1.509   3.571   0.000   0.000   5.080
   30        1.509   3.575   0.000   0.000   5.084
   31        1.586   3.441   0.000   0.000   5.026
   32        1.586   3.444   0.000   0.000   5.030
   33        1.587   3.386   0.000   0.000   4.973
   34        1.598   3.387   0.000   0.000   4.985
   35        1.595   3.273   0.000   0.000   4.868
   36        1.626   3.310   0.000   0.000   4.936
--------------------------------------------------
tot         48.923 161.138  35.744   1.518 247.323



 magnetization (x)

# of ion       s       p       d       f       tot
--------------------------------------------------
    1       -0.043  -0.038  -3.066   0.000  -3.148
    2        0.046   0.041   3.103   0.000   3.190
    3       -0.016  -0.024  -2.402   0.000  -2.442
    4        0.016   0.024   2.431   0.000   2.471
    5        0.019   0.024   2.613   0.000   2.656
    6        0.019   0.023   2.600   0.000   2.642
    7        0.022   0.021   2.393   0.000   2.436
    8        0.009  -0.001  -0.232   0.000  -0.224
    9        0.001   0.001   0.000   0.000   0.002
   10       -0.001  -0.001   0.001   0.001   0.001
   11        0.000  -0.000   0.008   0.007   0.014
   12       -0.000  -0.001   0.003   0.006   0.009
   13       -0.000  -0.003   0.009   0.008   0.014
   14       -0.000  -0.003   0.007   0.009   0.012
   15       -0.002  -0.001   0.000   0.000  -0.003
   16        0.002  -0.001   0.000   0.000   0.001
   17       -0.002  -0.021   0.000   0.000  -0.023
   18        0.002   0.020   0.000   0.000   0.022
   19        0.001   0.027   0.000   0.000   0.028
   20       -0.000  -0.025   0.000   0.000  -0.025
   21       -0.000  -0.025   0.000   0.000  -0.025
   22        0.000   0.026   0.000   0.000   0.026
   23        0.000  -0.011   0.000   0.000  -0.010
   24       -0.000   0.040   0.000   0.000   0.040
   25        0.001  -0.017   0.000   0.000  -0.016
   26        0.001  -0.020   0.000   0.000  -0.019
   27        0.000  -0.013   0.000   0.000  -0.013
   28        0.000  -0.015   0.000   0.000  -0.015
   29        0.000   0.023   0.000   0.000   0.024
   30       -0.000   0.023   0.000   0.000   0.023
   31        0.000  -0.020   0.000   0.000  -0.020
   32        0.001  -0.014   0.000   0.000  -0.013
   33        0.002  -0.078   0.000   0.000  -0.076
   34        0.001  -0.103   0.000   0.000  -0.102
   35       -0.000  -0.027   0.000   0.000  -0.027
   36       -0.000  -0.003   0.000   0.000  -0.003
--------------------------------------------------
tot          0.078  -0.171   7.468   0.032   7.407
 
    CHARGE:  cpu time      0.0152: real time      0.0152
    FORLOC:  cpu time      0.0032: real time      0.0032
    FORNL :  cpu time      0.0687: real time      0.0689
    STRESS:  cpu time      0.2070: real time      0.2074
    FORCOR:  cpu time      0.0311: real time      0.0311
    FORHAR:  cpu time      0.0056: real time      0.0056
    MIXING:  cpu time      0.0032: real time      0.0032
    OFIELD:  cpu time      0.0000: real time      0.0000

  FORCE on cell =-STRESS in cart. coord.  units (eV):
  Direction    XX          YY          ZZ          XY          YZ          ZX
  --------------------------------------------------------------------------------------
  Alpha Z   614.47479   614.47479   614.47479
  Ewald  155487.70247155464.24766************    -7.03395    25.12963   -97.20696
  Hartree162474.55350162568.78368************    -4.93388     7.25332   -69.46554
  E(xc)   -1424.31813 -1424.95402 -1424.81153    -0.02131     0.09380    -0.14802
  Local  ************************321624.70755    11.50552   -45.04837   166.57307
  n-local   131.25965   113.99818   129.70065    -0.13620     5.21151    -0.86794
  augment   623.57718   621.68502   619.02162     0.23216     1.22504     0.10577
  Kinetic  5136.81756  5093.97579  5074.27493     0.87316    13.55755    -2.08312
  Fock        0.00000     0.00000     0.00000     0.00000     0.00000     0.00000
  -------------------------------------------------------------------------------------
  Total       7.86238   -19.57400   -17.43563     0.48550     7.42247    -3.09275
  in kB      13.60819   -33.87862   -30.17753     0.84030    12.84679    -5.35292
  external pressure =      -16.82 kB  Pullay stress =        0.00 kB


 VOLUME and BASIS-vectors are now :
 -----------------------------------------------------------------------------
  energy-cutoff  :      400.00
  volume of cell :      925.69
      direct lattice vectors                 reciprocal lattice vectors
     5.536700000  0.000000000  0.000000000     0.180613001  0.000000000  0.000000000
     0.000000000  5.747300000  0.000000000     0.000000000  0.173994745  0.000000000
     0.000000000  0.000000000 29.090392640     0.000000000  0.000000000  0.034375610

  length of vectors
     5.536700000  5.747300000 29.090392640     0.180613001  0.173994745  0.034375610


 FORCES acting on ions
    electron-ion (+dipol)            ewald-force                    non-local-force                 convergence-correction
 -----------------------------------------------------------------------------------------------
   -.247E+03 -.383E+02 0.456E+04   0.244E+03 0.366E+02 -.455E+04   0.206E+01 0.272E+01 -.778E+01   0.100E+00 -.101E-01 -.107E+00
   0.247E+03 -.381E+02 0.456E+04   -.244E+03 0.366E+02 -.455E+04   -.189E+01 0.253E+01 -.775E+01   -.122E+00 0.424E-01 -.110E+00
   0.682E+01 -.359E-01 0.191E+04   -.672E+01 0.700E-01 -.190E+04   -.119E+00 -.710E-02 -.485E+00   -.920E-03 -.669E-03 -.917E+00
   -.678E+01 -.831E-02 0.191E+04   0.672E+01 0.525E-01 -.190E+04   0.262E+00 -.106E+00 -.515E+00   0.149E-02 0.315E-03 -.909E+00
   -.319E+01 0.105E+02 -.103E+04   0.317E+01 -.104E+02 0.104E+04   0.109E+00 -.574E-01 -.334E+00   0.244E-02 0.124E-02 -.871E+00
   0.353E+01 0.943E+01 -.104E+04   -.335E+01 -.938E+01 0.104E+04   0.214E+00 0.588E-01 -.199E+00   0.705E-03 0.454E-02 -.886E+00
   -.854E+02 -.911E+01 -.413E+04   0.816E+02 0.102E+02 0.412E+04   0.267E+01 -.127E+01 0.563E+01   0.556E-01 0.578E-01 -.284E+00
   0.569E+02 0.476E+02 -.371E+04   -.556E+02 -.462E+02 0.371E+04   -.149E+01 -.214E+01 0.225E+01   -.611E-01 -.414E-01 -.510E+00
   0.722E+02 0.495E+02 0.309E+04   -.716E+02 -.487E+02 -.309E+04   0.671E+00 -.181E+01 0.232E+00   -.265E-01 0.501E-02 -.703E+00
   -.722E+02 0.495E+02 0.309E+04   0.716E+02 -.487E+02 -.309E+04   -.683E+00 -.181E+01 0.238E+00   0.303E-01 0.104E-01 -.711E+00
   -.148E+02 -.526E+02 0.405E+03   0.147E+02 0.515E+02 -.404E+03   -.423E+00 0.195E+01 -.354E+00   -.538E-04 0.302E-02 -.840E+00
   0.148E+02 -.528E+02 0.405E+03   -.148E+02 0.516E+02 -.404E+03   0.401E+00 0.193E+01 -.360E+00   -.516E-03 -.259E-03 -.840E+00
   0.198E+02 0.345E+02 -.231E+04   -.190E+02 -.343E+02 0.231E+04   -.157E-01 -.332E+00 -.166E+01   0.126E-01 -.235E-01 -.694E+00
   -.181E+02 0.346E+02 -.231E+04   0.171E+02 -.346E+02 0.231E+04   0.142E+00 -.212E+00 -.161E+01   -.108E-01 0.397E-02 -.679E+00
   -.891E+02 0.218E+02 0.215E+04   0.952E+02 -.245E+02 -.215E+04   -.192E+01 0.243E+01 0.604E+01   -.535E-01 0.306E-01 -.146E+00
   0.891E+02 0.218E+02 0.215E+04   -.952E+02 -.245E+02 -.215E+04   0.204E+01 0.262E+01 0.596E+01   0.227E-01 -.772E-02 -.143E+00
   0.766E+02 -.177E+02 0.170E+04   -.778E+02 0.186E+02 -.169E+04   0.842E+00 -.614E-01 -.311E+01   -.377E-02 0.112E-01 -.476E+00
   -.766E+02 -.178E+02 0.170E+04   0.778E+02 0.186E+02 -.169E+04   -.909E+00 0.592E-01 -.319E+01   0.523E-02 0.111E-03 -.451E+00
   0.703E+02 0.277E+02 0.108E+04   -.745E+02 -.298E+02 -.108E+04   -.192E+00 0.143E+01 -.450E+01   0.299E-02 0.166E-02 -.451E+00
   -.702E+02 0.276E+02 0.108E+04   0.745E+02 -.297E+02 -.108E+04   0.142E+00 0.151E+01 -.445E+01   0.236E-02 -.136E-02 -.452E+00
   0.690E+02 -.278E+02 0.825E+03   -.733E+02 0.297E+02 -.823E+03   -.158E+01 -.220E+01 -.145E+01   -.242E-02 0.247E-02 -.461E+00
   -.690E+02 -.278E+02 0.825E+03   0.733E+02 0.297E+02 -.823E+03   0.156E+01 -.222E+01 -.144E+01   -.393E-02 -.251E-02 -.460E+00
   -.441E+02 0.175E+02 0.210E+03   0.459E+02 -.183E+02 -.208E+03   -.248E+01 -.209E+01 -.454E+01   0.427E-02 0.487E-03 -.472E+00
   0.438E+02 0.179E+02 0.210E+03   -.460E+02 -.184E+02 -.208E+03   0.259E+01 -.229E+01 -.444E+01   0.218E-04 -.429E-03 -.467E+00
   -.525E+02 -.846E+01 -.371E+03   0.560E+02 0.858E+01 0.369E+03   -.488E+01 -.373E+00 0.440E+01   -.184E-02 -.847E-02 -.449E+00
   0.520E+02 -.811E+01 -.371E+03   -.554E+02 0.820E+01 0.370E+03   0.467E+01 -.207E+00 0.444E+01   -.139E-01 0.545E-02 -.448E+00
   -.468E+02 0.751E+01 -.632E+03   0.506E+02 -.748E+01 0.634E+03   -.725E+01 0.908E+00 -.112E+01   0.154E-01 -.581E-02 -.432E+00
   0.477E+02 0.872E+01 -.633E+03   -.517E+02 -.867E+01 0.635E+03   0.713E+01 0.653E+00 -.112E+01   0.279E-02 0.581E-02 -.429E+00
   0.408E+02 -.164E+02 -.126E+04   -.444E+02 0.176E+02 0.126E+04   0.404E+01 -.191E+01 -.342E+01   -.629E-02 0.115E-01 -.416E+00
   -.473E+02 -.145E+02 -.124E+04   0.493E+02 0.152E+02 0.124E+04   -.265E+01 -.128E+01 -.388E+01   0.296E-02 -.451E-02 -.423E+00
   0.800E+02 0.277E+02 -.186E+04   -.836E+02 -.276E+02 0.186E+04   0.141E+01 -.296E+01 -.144E+01   -.223E-01 -.139E-01 -.227E+00
   -.154E+02 -.287E+02 -.186E+04   0.188E+02 0.293E+02 0.186E+04   -.106E+01 -.346E+01 -.173E+01   0.664E-02 0.222E-01 -.230E+00
   0.242E+02 0.347E+02 -.208E+04   -.322E+02 -.359E+02 0.210E+04   0.102E+02 -.341E+01 -.872E+01   -.120E-01 -.408E-01 -.135E+00
   -.143E+03 -.441E+02 -.207E+04   0.150E+03 0.445E+02 0.208E+04   -.853E+01 0.746E+00 -.938E+01   0.533E-01 0.280E-01 -.170E+00
   0.297E+02 0.246E+03 -.243E+04   -.292E+02 -.285E+03 0.245E+04   -.178E+00 0.449E+02 -.143E+02   -.152E-01 -.914E-01 0.214E+00
   0.523E+02 -.291E+03 -.243E+04   -.521E+02 0.335E+03 0.244E+04   -.267E+00 -.462E+02 -.308E+01   -.585E-01 0.147E+00 0.137E+00
 -----------------------------------------------------------------------------------------------
   -.481E+01 0.105E+01 0.946E+02   0.711E-14 -.114E-12 -.909E-12   0.458E+01 -.120E+02 -.671E+02   -.939E-01 0.143E+00 -.160E+02
 
 
 POSITION                                       TOTAL-FORCE (eV/Angst)
 -----------------------------------------------------------------------------------
      0.00000      2.87365      0.10000        -0.934309      1.309538      1.530750
      2.76835      0.00000      0.10000         0.854892      1.361788      1.489933
      2.76835      0.00000      3.94645        -0.013327      0.325894      0.365652
      0.00000      2.87365      3.94645         0.208649      0.237684      0.231172
      5.53566      2.87463      7.82972         0.103017      0.350908     -0.282581
      2.76971      0.00085      7.82959         0.400356      0.417396     -0.240053
      2.70313      0.01841     11.63200        -1.040018      0.229315     -1.041294
      0.06048      2.88924     11.63803        -0.179669     -0.383922      0.327566
      2.81154      3.15527      2.02323         1.253458     -0.730340     -0.399638
      5.49351      0.28162      2.02323        -1.228230     -0.732560     -0.400695
      2.72516      2.59203      5.86967        -0.464200      1.088876     -0.149802
      0.04319      5.46568      5.86967         0.499756      1.072588     -0.154428
      2.82668      3.13042      9.77026         0.819109      0.127690      0.690831
      5.47924      0.25497      9.77073        -0.769988      0.004295      0.614386
      4.28762      4.63577      0.39541         4.124637      0.069267      1.788604
      4.01743      1.76212      0.39541        -4.015525      0.164667      1.780795
      2.35587      5.67488      2.02323        -0.295621      1.092325     -2.382068
      0.41248      2.80123      2.02323         0.305015      1.126008     -2.410775
      4.01743      1.76212      3.65104        -4.427365     -0.358017     -6.114149
      4.28762      4.63577      3.65104         4.413073     -0.342560     -6.103719
      1.24908      1.11153      4.24186        -5.886340      0.049095      0.108776
      1.51927      3.98518      4.24186         5.875753      0.026580      0.124372
      3.18083      0.07242      5.86967        -0.655867     -2.649190     -3.484588
      5.12422      2.94607      5.86967         0.394035     -2.517604     -3.462150
      1.58838      4.00756      7.46650        -1.346933      0.043316      2.329872
      1.18011      1.13324      7.46645         1.208884      0.191268      2.298119
      4.38258      4.65060      8.07649        -3.342389      1.223769      0.244017
      3.92178      1.77609      8.07650         3.166320      1.006593      0.198439
      2.37957      0.00095      9.70018         0.429577     -0.403652     -3.622590
      0.38852      2.87530      9.69996        -0.657294     -0.240786     -3.172961
      3.97452      1.72871     11.28278        -2.213755     -2.553283      1.754706
      4.32977      4.60321     11.28175         2.331141     -2.464061      1.757823
      1.18053      1.09287     11.89192         2.190251     -4.406034      2.992654
      1.60082      3.97378     11.88664        -1.296557      1.484942      2.007376
      5.53452      2.23854     13.70336         0.305229      6.132015      5.593231
      5.53063      3.50450     13.26530        -0.115763     -1.353810      5.192416
 -----------------------------------------------------------------------------------
    total drift:                               -0.321246    -10.782483     11.399879


--------------------------------------------------------------------------------------------------------



  FREE ENERGIE OF THE ION-ELECTRON SYSTEM (eV)
  ---------------------------------------------------
  free  energy   TOTEN  =      -292.14600918 eV

  energy  without entropy=     -291.86905849  energy(sigma->0) =     -292.00753383
 
 d Force = 0.3805636E+00[-0.999E-01, 0.861E+00]  d Energy = 0.5734633E+00-0.193E+00
 d Force =-0.1688850E+03[-0.171E+03,-0.167E+03]  d Ewald  =-0.1688329E+03-0.521E-01


--------------------------------------------------------------------------------------------------------


    POTLOK:  cpu time      0.9494: real time      0.9516


--------------------------------------------------------------------------------------------------------


 stress matrix after NEB project (eV)
      7.86238      0.48551     -3.09275
      0.48550    -19.57400      7.42275
     -3.09267      7.42247    -17.43563
  FORCES: max atom, RMS     8.305360    2.555322
  FORCE total and by dimension   15.331933    6.132015
  Stress total and by dimension   29.643736   19.574001


--------------------------------------------------------------------------------------------------------


     LOOP+:  cpu time     44.9623: real time     45.2703
 vacuum level on the upper side and lower side of the slab         6.614         4.058
    4ORBIT:  cpu time      0.0000: real time      0.0000



 total charge

# of ion       s       p       d       f       tot
--------------------------------------------------
    1        0.266   6.180   4.114   0.000  10.560
    2        0.266   6.181   4.113   0.000  10.559
    3        0.285   6.361   4.063   0.000  10.710
    4        0.284   6.361   4.062   0.000  10.708
    5        0.283   6.339   4.019   0.000  10.640
    6        0.282   6.338   4.019   0.000  10.640
    7        0.257   6.282   3.955   0.000  10.494
    8        0.324   6.403   4.049   0.000  10.775
    9        2.006   5.717   0.557   0.246   8.526
   10        2.006   5.717   0.557   0.246   8.526
   11        2.002   5.727   0.553   0.253   8.535
   12        2.002   5.727   0.554   0.252   8.535
   13        2.003   5.715   0.566   0.261   8.545
   14        2.003   5.715   0.563   0.260   8.541
   15        1.600   3.440   0.000   0.000   5.040
   16        1.600   3.440   0.000   0.000   5.040
   17        1.561   3.529   0.000   0.000   5.090
   18        1.562   3.528   0.000   0.000   5.090
   19        1.586   3.497   0.000   0.000   5.083
   20        1.586   3.497   0.000   0.000   5.083
   21        1.585   3.507   0.000   0.000   5.092
   22        1.585   3.507   0.000   0.000   5.092
   23        1.564   3.533   0.000   0.000   5.097
   24        1.564   3.536   0.000   0.000   5.100
   25        1.562   3.492   0.000   0.000   5.053
   26        1.562   3.491   0.000   0.000   5.053
   27        1.570   3.495   0.000   0.000   5.066
   28        1.571   3.495   0.000   0.000   5.066
   29        1.509   3.571   0.000   0.000   5.080
   30        1.509   3.575   0.000   0.000   5.084
   31        1.586   3.441   0.000   0.000   5.026
   32        1.586   3.444   0.000   0.000   5.030
   33        1.587   3.386   0.000   0.000   4.973
   34        1.598   3.387   0.000   0.000   4.985
   35        1.595   3.273   0.000   0.000   4.868
   36        1.626   3.310   0.000   0.000   4.936
--------------------------------------------------
tot         48.923 161.138  35.744   1.518 247.323



 magnetization (x)

# of ion       s       p       d       f       tot
--------------------------------------------------
    1       -0.043  -0.038  -3.066   0.000  -3.148
    2        0.046   0.041   3.103   0.000   3.190
    3       -0.016  -0.024  -2.402   0.000  -2.442
    4        0.016   0.024   2.431   0.000   2.471
    5        0.019   0.024   2.613   0.000   2.656
    6        0.019   0.023   2.600   0.000   2.642
    7        0.022   0.021   2.393   0.000   2.436
    8        0.009  -0.001  -0.232   0.000  -0.224
    9        0.001   0.001   0.000   0.000   0.002
   10       -0.001  -0.001   0.001   0.001   0.001
   11        0.000  -0.000   0.008   0.007   0.014
   12       -0.000  -0.001   0.003   0.006   0.009
   13       -0.000  -0.003   0.009   0.008   0.014
   14       -0.000  -0.003   0.007   0.009   0.012
   15       -0.002  -0.001   0.000   0.000  -0.003
   16        0.002  -0.001   0.000   0.000   0.001
   17       -0.002  -0.021   0.000   0.000  -0.023
   18        0.002   0.020   0.000   0.000   0.022
   19        0.001   0.027   0.000   0.000   0.028
   20       -0.000  -0.025   0.000   0.000  -0.025
   21       -0.000  -0.025   0.000   0.000  -0.025
   22        0.000   0.026   0.000   0.000   0.026
   23        0.000  -0.011   0.000   0.000  -0.010
   24       -0.000   0.040   0.000   0.000   0.040
   25        0.001  -0.017   0.000   0.000  -0.016
   26        0.001  -0.020   0.000   0.000  -0.019
   27        0.000  -0.013   0.000   0.000  -0.013
   28        0.000  -0.015   0.000   0.000  -0.015
   29        0.000   0.023   0.000   0.000   0.024
   30       -0.000   0.023   0.000   0.000   0.023
   31        0.000  -0.020   0.000   0.000  -0.020
   32        0.001  -0.014   0.000   0.000  -0.013
   33        0.002  -0.078   0.000   0.000  -0.076
   34        0.001  -0.103   0.000   0.000  -0.102
   35       -0.000  -0.027   0.000   0.000  -0.027
   36       -0.000  -0.003   0.000   0.000  -0.003
--------------------------------------------------
tot          0.078  -0.171   7.468   0.032   7.407
 

 total amount of memory used by VASP MPI-rank0    42823. kBytes
=======================================================================

   base      :      30000. kBytes
   nonlr-proj:       2308. kBytes
   fftplans  :       1875. kBytes
   grid      :       5118. kBytes
   one-center:        884. kBytes
   wavefun   :       2638. kBytes
 
  
  
 General timing and accounting informations for this job:
 ========================================================
  
                  Total CPU time used (sec):      230.091
                            User time (sec):      226.663
                          System time (sec):        3.429
                         Elapsed time (sec):      232.056
  
                   Maximum memory used (kb):      206688.
                   Average memory used (kb):          N/A
  
                          Minor page faults:        76580
                          Major page faults:            0
                 Voluntary context switches:         3728
