<?xml version="1.0" encoding="ISO-8859-1"?>
<modeling>
 <generator>
  <i name="program" type="string">vasp </i>
  <i name="version" type="string">6.4.3  </i>
  <i name="subversion" type="string">19Mar24 (build Jul 09 2024 15:45:28) complex                          parallel </i>
  <i name="platform" type="string">LinuxIFC </i>
  <i name="date" type="string">2024 10 29 </i>
  <i name="time" type="string">12:03:35 </i>
 </generator>
 <incar>
  <i type="string" name="PREC">Normal</i>
  <i type="string" name="ALGO">Normal</i>
  <i type="int" name="NSIM">    10</i>
  <i type="int" name="ISPIN">     2</i>
  <i type="int" name="NELM">    30</i>
  <i type="int" name="NELMIN">     5</i>
  <i type="int" name="IBRION">     2</i>
  <i name="EDIFF">      0.00010000</i>
  <i name="EDIFFG">     -0.10000000</i>
  <i type="int" name="NSW">     5</i>
  <i name="ENCUT">    400.00000000</i>
  <i name="POTIM">      0.15000000</i>
  <v name="MAGMOM">      1.00000000      1.00000000      1.00000000      1.00000000      1.00000000      1.00000000      1.00000000      1.00000000      0.00000000      0.00000000      0.00000000      0.00000000      0.00000000      0.00000000      0.00000000      0.00000000      0.00000000      0.00000000      0.00000000      0.00000000
      0.00000000      0.00000000      0.00000000      0.00000000      0.00000000      0.00000000      0.00000000      0.00000000      0.00000000      0.00000000      0.00000000      0.00000000      0.00000000      0.00000000      1.00000000      1.00000000</v>
  <i type="logical" name="LREAL"> T  </i>
  <i type="int" name="ISMEAR">     0</i>
  <i type="logical" name="KGAMMA"> T  </i>
  <i type="int" name="LMAXMIX">     6</i>
  <i type="logical" name="LWAVE"> F  </i>
  <i type="logical" name="LCHARG"> F  </i>
  <i type="int" name="LORBIT">    10</i>
  <i type="logical" name="LASPH"> T  </i>
  <i type="string" name="GGA">PE</i>
  <i type="logical" name="LDIPOL"> T  </i>
  <i type="int" name="IDIPOL">     3</i>
 </incar>
 <primitive_cell>
  <structure name="primitive_cell" >
   <crystal>
    <varray name="basis" >
     <v>       5.53670000       0.00000000       0.00000000 </v>
     <v>       0.00000000       5.74730000       0.00000000 </v>
     <v>       0.00000000       0.00000000      29.09039264 </v>
    </varray>
    <i name="volume">    925.68759245 </i>
    <varray name="rec_basis" >
     <v>       0.18061300       0.00000000       0.00000000 </v>
     <v>       0.00000000       0.17399475       0.00000000 </v>
     <v>       0.00000000       0.00000000       0.03437561 </v>
    </varray>
   </crystal>
   <varray name="positions" >
    <v>       0.00000000       0.50000000       0.00343756 </v>
    <v>       0.50000000       0.00000000       0.00343756 </v>
    <v>       0.50000000       0.00000000       0.13566163 </v>
    <v>       0.00000000       0.50000000       0.13566163 </v>
    <v>       0.99986929       0.49938438       0.26937126 </v>
    <v>       0.50013071       0.99938438       0.26937126 </v>
    <v>       0.48939587       0.00315503       0.40006453 </v>
    <v>       0.01060413       0.50315503       0.40006453 </v>
    <v>       0.50780000       0.54900000       0.06954959 </v>
    <v>       0.99220000       0.04900000       0.06954959 </v>
    <v>       0.49220000       0.45100000       0.20177366 </v>
    <v>       0.00780000       0.95100000       0.20177366 </v>
    <v>       0.50957389       0.54416646       0.33581737 </v>
    <v>       0.99042611       0.04416646       0.33581737 </v>
    <v>       0.77440000       0.80660000       0.01359237 </v>
    <v>       0.72560000       0.30660000       0.01359237 </v>
    <v>       0.42550000       0.98740000       0.06954959 </v>
    <v>       0.07450000       0.48740000       0.06954959 </v>
    <v>       0.72560000       0.30660000       0.12550682 </v>
    <v>       0.77440000       0.80660000       0.12550682 </v>
    <v>       0.22560000       0.19340000       0.14581644 </v>
    <v>       0.27440000       0.69340000       0.14581644 </v>
    <v>       0.57450000       0.01260000       0.20177366 </v>
    <v>       0.92550000       0.51260000       0.20177366 </v>
    <v>       0.28870533       0.69634117       0.25614362 </v>
    <v>       0.21129467       0.19634117       0.25614362 </v>
    <v>       0.79204805       0.80781865       0.27752619 </v>
    <v>       0.70795195       0.30781865       0.27752619 </v>
    <v>       0.42984338       0.00357119       0.33324504 </v>
    <v>       0.07015662       0.50357119       0.33324504 </v>
    <v>       0.71908670       0.30128723       0.38774270 </v>
    <v>       0.78091330       0.80128723       0.38774270 </v>
    <v>       0.21339458       0.19228727       0.40834875 </v>
    <v>       0.28660542       0.69228727       0.40834875 </v>
    <v>       0.00000000       0.39814211       0.47022484 </v>
    <v>       0.00000000       0.60185789       0.45557595 </v>
   </varray>
  </structure>
  <varray name="primitive_index" >
   <v type="int" >        1 </v>
   <v type="int" >        2 </v>
   <v type="int" >        3 </v>
   <v type="int" >        4 </v>
   <v type="int" >        5 </v>
   <v type="int" >        6 </v>
   <v type="int" >        7 </v>
   <v type="int" >        8 </v>
   <v type="int" >        9 </v>
   <v type="int" >       10 </v>
   <v type="int" >       11 </v>
   <v type="int" >       12 </v>
   <v type="int" >       13 </v>
   <v type="int" >       14 </v>
   <v type="int" >       15 </v>
   <v type="int" >       16 </v>
   <v type="int" >       17 </v>
   <v type="int" >       18 </v>
   <v type="int" >       19 </v>
   <v type="int" >       20 </v>
   <v type="int" >       21 </v>
   <v type="int" >       22 </v>
   <v type="int" >       23 </v>
   <v type="int" >       24 </v>
   <v type="int" >       25 </v>
   <v type="int" >       26 </v>
   <v type="int" >       27 </v>
   <v type="int" >       28 </v>
   <v type="int" >       29 </v>
   <v type="int" >       30 </v>
   <v type="int" >       31 </v>
   <v type="int" >       32 </v>
   <v type="int" >       33 </v>
   <v type="int" >       34 </v>
   <v type="int" >       35 </v>
   <v type="int" >       36 </v>
  </varray>
 </primitive_cell>
 <kpoints>
  <generation param="Monkhorst-Pack">
   <v type="int" name="divisions">       1        1        1 </v>
   <v name="usershift">      0.00000000       0.00000000       0.00000000 </v>
   <v name="genvec1">      1.00000000       0.00000000       0.00000000 </v>
   <v name="genvec2">      0.00000000       1.00000000       0.00000000 </v>
   <v name="genvec3">      0.00000000       0.00000000       1.00000000 </v>
   <v name="shift">      0.00000000       0.00000000       0.00000000 </v>
  </generation>
  <varray name="kpointlist" >
   <v>       0.00000000       0.00000000       0.00000000 </v>
  </varray>
  <varray name="weights" >
   <v>       1.00000000 </v>
  </varray>
 </kpoints>
 <parameters>
  <separator name="general" >
   <i type="string" name="SYSTEM">unknown system</i>
   <i type="logical" name="LCOMPAT"> F  </i>
  </separator>
  <separator name="electronic" >
   <i type="string" name="PREC">normal</i>
   <i name="ENMAX">    400.00000000</i>
   <i name="ENAUG">    605.39200000</i>
   <i name="EDIFF">      0.00010000</i>
   <i type="int" name="IALGO">    38</i>
   <i type="int" name="IWAVPR">    11</i>
   <i type="int" name="NBANDS">   190</i>
   <i type="int" name="NBANDSLOW">    -1</i>
   <i type="int" name="NBANDSHIGH">    -1</i>
   <i name="NELECT">    294.00000000</i>
   <i type="int" name="TURBO">     0</i>
   <i type="int" name="IRESTART">     0</i>
   <i type="int" name="NREBOOT">     0</i>
   <i type="int" name="NMIN">     0</i>
   <i name="EREF">      0.00000000</i>
   <separator name="electronic smearing" >
    <i type="int" name="ISMEAR">     0</i>
    <i name="SIGMA">      0.20000000</i>
    <i name="KSPACING">      0.50000000</i>
    <i type="logical" name="KGAMMA"> T  </i>
    <i type="logical" name="KBLOWUP"> T  </i>
   </separator>
   <separator name="electronic projectors" >
    <i type="logical" name="LREAL"> T  </i>
    <v name="ROPT">      0.00000000      0.00000000      0.00000000</v>
    <i type="int" name="LMAXPAW">  -100</i>
    <i type="int" name="LMAXMIX">     6</i>
    <i type="logical" name="NLSPLINE"> F  </i>
   </separator>
   <separator name="electronic startup" >
    <i type="int" name="ISTART">     0</i>
    <i type="int" name="ICHARG">     2</i>
    <i type="int" name="INIWAV">     1</i>
   </separator>
   <separator name="electronic spin" >
    <i type="int" name="ISPIN">     2</i>
    <i type="logical" name="LNONCOLLINEAR"> F  </i>
    <v name="MAGMOM">      1.00000000      1.00000000      1.00000000      1.00000000      1.00000000      1.00000000      1.00000000      1.00000000      0.00000000      0.00000000      0.00000000      0.00000000      0.00000000      0.00000000      0.00000000      0.00000000      0.00000000      0.00000000      0.00000000      0.00000000
      0.00000000      0.00000000      0.00000000      0.00000000      0.00000000      0.00000000      0.00000000      0.00000000      0.00000000      0.00000000      0.00000000      0.00000000      0.00000000      0.00000000      1.00000000      1.00000000</v>
    <i name="NUPDOWN">     -1.00000000</i>
    <i type="logical" name="LSORBIT"> F  </i>
    <v name="SAXIS">      0.00000000      0.00000000      1.00000000</v>
    <i type="logical" name="LSPIRAL"> F  </i>
    <v name="QSPIRAL">      0.00000000      0.00000000      0.00000000</v>
    <i type="logical" name="LZEROZ"> F  </i>
   </separator>
   <separator name="electronic exchange-correlation" >
    <i type="logical" name="LASPH"> T  </i>
   </separator>
   <separator name="electronic convergence" >
    <i type="int" name="NELM">    30</i>
    <i type="int" name="NELMDL">     0</i>
    <i type="int" name="NELMIN">     5</i>
    <i name="ENINI">    400.00000000</i>
    <separator name="electronic convergence detail" >
     <i type="logical" name="LDIAG"> T  </i>
     <i type="logical" name="LSUBROT"> F  </i>
     <i name="WEIMIN">      0.00100000</i>
     <i name="EBREAK">      0.00000013</i>
     <i name="DEPER">      0.30000000</i>
     <i type="int" name="NRMM">     4</i>
     <i name="TIME">      0.40000000</i>
    </separator>
   </separator>
   <separator name="electronic mixer" >
    <i name="AMIX">      0.40000000</i>
    <i name="BMIX">      1.00000000</i>
    <i name="AMIN">      0.10000000</i>
    <i name="AMIX_MAG">      1.60000000</i>
    <i name="BMIX_MAG">      1.00000000</i>
    <separator name="electronic mixer details" >
     <i type="int" name="IMIX">     4</i>
     <i type="logical" name="MIXFIRST"> F  </i>
     <i type="int" name="MAXMIX">   -45</i>
     <i name="WC">    100.00000000</i>
     <i type="int" name="INIMIX">     1</i>
     <i type="int" name="MIXPRE">     1</i>
     <i type="int" name="MREMOVE">     5</i>
    </separator>
   </separator>
   <separator name="electronic dipolcorrection" >
    <i type="logical" name="LDIPOL"> T  </i>
    <i type="logical" name="LMONO"> F  </i>
    <i type="int" name="IDIPOL">     3</i>
    <i name="EPSILON">      1.00000000</i>
    <v name="DIPOL">   -100.00000000   -100.00000000   -100.00000000</v>
    <i name="EFIELD">      0.00000000</i>
    <i type="logical" name="LVACPOTAV"> F  </i>
   </separator>
  </separator>
  <separator name="grids" >
   <i type="int" name="NGX">    28</i>
   <i type="int" name="NGY">    28</i>
   <i type="int" name="NGZ">   144</i>
   <i type="int" name="NGXF">    56</i>
   <i type="int" name="NGYF">    56</i>
   <i type="int" name="NGZF">   288</i>
   <i type="logical" name="ADDGRID"> F  </i>
  </separator>
  <separator name="ionic" >
   <i type="int" name="NSW">     5</i>
   <i type="int" name="IBRION">     2</i>
   <i type="int" name="MDALGO">     0</i>
   <i type="int" name="ISIF">     2</i>
   <i name="PSTRESS">      0.00000000</i>
   <i name="EDIFFG">     -0.10000000</i>
   <i type="int" name="NFREE">     1</i>
   <i name="POTIM">      0.15000000</i>
   <i name="SMASS">     -3.00000000</i>
   <i name="SCALEE">      1.00000000</i>
  </separator>
  <separator name="ionic md" >
   <i name="TEBEG">      0.00010000</i>
   <i name="TEEND">      0.00010000</i>
   <i type="int" name="NBLOCK">     1</i>
   <i type="int" name="KBLOCK">     5</i>
   <i type="int" name="NPACO">   256</i>
   <i name="APACO">     10.00000000</i>
  </separator>
  <separator name="symmetry" >
   <i type="int" name="ISYM">     2</i>
   <i name="SYMPREC">      0.00001000</i>
  </separator>
  <separator name="dos" >
   <i type="int" name="LORBIT">    10</i>
   <v name="RWIGS">     -1.00000000     -1.00000000     -1.00000000</v>
   <i type="int" name="NEDOS">   301</i>
   <i name="EMIN">     10.00000000</i>
   <i name="EMAX">    -10.00000000</i>
   <i name="EFERMI">      0.00000000</i>
  </separator>
  <separator name="writing" >
   <i type="int" name="NWRITE">     2</i>
   <i type="logical" name="LWAVE"> F  </i>
   <i type="logical" name="LDOWNSAMPLE"> F  </i>
   <i type="logical" name="LCHARG"> F  </i>
   <i type="logical" name="LPARD"> F  </i>
   <i type="logical" name="LVTOT"> F  </i>
   <i type="logical" name="LVHAR"> F  </i>
   <i type="logical" name="LELF"> F  </i>
   <i type="logical" name="LOPTICS"> F  </i>
   <v name="STM">      0.00000000      0.00000000      0.00000000      0.00000000      0.00000000      0.00000000      0.00000000</v>
  </separator>
  <separator name="performance" >
   <i type="int" name="NPAR">    10</i>
   <i type="int" name="NSIM">    10</i>
   <i type="int" name="NBLK">    -1</i>
   <i type="logical" name="LPLANE"> T  </i>
   <i type="logical" name="LSCALAPACK"> T  </i>
   <i type="logical" name="LSCAAWARE"> F  </i>
   <i type="logical" name="LSCALU"> F  </i>
   <i type="logical" name="LASYNC"> F  </i>
   <i type="logical" name="LORBITALREAL"> F  </i>
  </separator>
  <separator name="miscellaneous" >
   <i type="int" name="IDIOT">     3</i>
   <i type="int" name="PHON_NSTRUCT">    -1</i>
   <i type="logical" name="LMUSIC"> F  </i>
   <v name="POMASS">     51.99600000    138.90000000     16.00000000</v>
   <v name="DARWINR">      0.00000000      0.00000000      0.00000000</v>
   <v name="DARWINV">      1.00000000      1.00000000      1.00000000</v>
   <i type="logical" name="LCORR"> T  </i>
  </separator>
  <i type="logical" name="GGA_COMPAT"> T  </i>
  <i type="logical" name="LBERRY"> F  </i>
  <i type="int" name="ICORELEVEL">     0</i>
  <i type="logical" name="LDAU"> F  </i>
  <i type="int" name="I_CONSTRAINED_M">     0</i>
  <separator name="electronic exchange-correlation" >
   <i type="string" name="GGA    ">PE</i>
   <i type="string" name="XC_C">1</i>
   <i type="int" name="VOSKOWN">     0</i>
   <i type="logical" name="LHFCALC"> F  </i>
   <i type="string" name="PRECFOCK"></i>
   <i type="logical" name="LSYMGRAD"> F  </i>
   <i type="logical" name="LHFONE"> F  </i>
   <i type="logical" name="LRHFCALC"> F  </i>
   <i type="logical" name="LTHOMAS"> F  </i>
   <i type="logical" name="LMODELHF"> F  </i>
   <i type="logical" name="LFOCKACE"> F  </i>
   <i name="ENCUT4O">     -1.00000000</i>
   <i type="int" name="EXXOEP">     0</i>
   <i type="int" name="FOURORBIT">     0</i>
   <i name="AEXX">      0.00000000</i>
   <i name="HFALPHA">      0.00000000</i>
   <i name="MCALPHA">      0.00000000</i>
   <i name="ALDAX">      1.00000000</i>
   <i name="AGGAX">      1.00000000</i>
   <i name="AMGGAX">      1.00000000</i>
   <i name="ALDAC">      1.00000000</i>
   <i name="AGGAC">      1.00000000</i>
   <i name="AMGGAC">      1.00000000</i>
   <i type="int" name="NKREDX">     1</i>
   <i type="int" name="NKREDY">     1</i>
   <i type="int" name="NKREDZ">     1</i>
   <i type="logical" name="SHIFTRED"> F  </i>
   <i type="logical" name="ODDONLY"> F  </i>
   <i type="logical" name="EVENONLY"> F  </i>
   <i type="int" name="LMAXFOCK">     0</i>
   <i type="int" name="NMAXFOCKAE">     0</i>
   <i type="logical" name="LFOCKAEDFT"> F  </i>
   <i name="HFSCREEN">      0.00000000</i>
   <i name="HFSCREENC">      0.00000000</i>
   <i type="int" name="NBANDSGWLOW">     0</i>
  </separator>
  <separator name="vdW DFT" >
   <i type="logical" name="LUSE_VDW"> F  </i>
   <i type="int" name="IVDW_NL">    -1</i>
   <i type="logical" name="LSPIN_VDW"> F  </i>
   <i name="ZAB_VDW">     -0.84910000</i>
   <i name="GAMMA_VDW">      1.39626340</i>
   <i name="ALPHA_VDW">      0.00000000</i>
   <i name="PARAM1">      0.12340000</i>
   <i name="PARAM2">      1.00000000</i>
   <i name="BPARAM">      6.30000000</i>
   <i name="CPARAM">      0.00930000</i>
  </separator>
  <separator name="model GW" >
   <i type="int" name="MODEL_GW">     0</i>
   <i name="MODEL_EPS0">     15.42812654</i>
   <i name="MODEL_ALPHA">      1.00000000</i>
  </separator>
  <separator name="linear response parameters" >
   <i type="logical" name="LEPSILON"> F  </i>
   <i type="logical" name="LRPA"> F  </i>
   <i type="logical" name="LNABLA"> F  </i>
   <i type="logical" name="LVEL"> F  </i>
   <i name="CSHIFT">      0.10000000</i>
   <i name="OMEGAMAX">     -1.00000000</i>
   <i name="DEG_THRESHOLD">      0.00200000</i>
   <i name="RTIME">     -0.10000000</i>
   <i name="WPLASMAI">      0.00000000</i>
   <v name="DFIELD">      0.00000000      0.00000000      0.00000000</v>
   <v name="WPLASMA">      0.00000000      0.00000000      0.00000000      0.00000000      0.00000000      0.00000000      0.00000000      0.00000000      0.00000000</v>
  </separator>
  <separator name="orbital magnetization" >
   <i type="logical" name="NUCIND"> F  </i>
   <v name="MAGPOS">      0.00000000      0.00000000      0.00000000</v>
   <i type="logical" name="LNICSALL"> T  </i>
   <i type="logical" name="ORBITALMAG"> F  </i>
   <i type="logical" name="LMAGBLOCH"> F  </i>
   <i type="logical" name="LCHIMAG"> F  </i>
   <i type="logical" name="LGAUGE"> T  </i>
   <i type="int" name="MAGATOM">     0</i>
   <v name="MAGDIPOL">      0.00000000      0.00000000      0.00000000</v>
   <v name="AVECCONST">      0.00000000      0.00000000      0.00000000</v>
  </separator>
  <separator name="response functions" >
   <i type="logical" name="LALL_IN_ONE"> F  </i>
   <i type="int" name="IALL_IN_ONE">    -1</i>
   <i type="int" name="NBANDS_WAVE">    -1</i>
   <i type="logical" name="LFINITE_TEMPERATURE"> F  </i>
   <i type="logical" name="LADDER"> F  </i>
   <i type="logical" name="LRPAFORCE"> F  </i>
   <i type="logical" name="LFXC"> F  </i>
   <i type="logical" name="LHARTREE"> T  </i>
   <i type="int" name="IBSE">     0</i>
   <v type="int" name="KPOINT">    -1     0     0     0</v>
   <i type="logical" name="LTCTC"> F  </i>
   <i type="logical" name="LTCTE"> F  </i>
   <i type="logical" name="LTETE"> F  </i>
   <i type="logical" name="LTRIPLET"> F  </i>
   <i type="logical" name="LFXCEPS"> F  </i>
   <i type="logical" name="LFXHEG"> F  </i>
   <i type="int" name="NATURALO">     2</i>
   <i type="logical" name="LHOLEGF"> F  </i>
   <i type="logical" name="L2ORDER"> F  </i>
   <i type="logical" name="LDMP1"> F  </i>
   <i type="logical" name="LMP2LT"> F  </i>
   <i type="logical" name="LSMP2LT"> F  </i>
   <i type="logical" name="LGWLF"> F  </i>
   <i name="ENCUTGW">     -1.60000002</i>
   <i name="ENCUTGWSOFT">     -1.60000002</i>
   <i name="ENCUTLF">     -1.00000000</i>
   <i type="logical" name="ESF_SPLINES"> F  </i>
   <i name="ESF_CONV">      0.01000000</i>
   <i type="int" name="ESF_NINTER">    15</i>
   <i type="int" name="LMAXMP2">    -1</i>
   <i name="SCISSOR">      0.00000000</i>
   <i type="int" name="NOMEGA">     0</i>
   <i type="int" name="NOMEGAR">     0</i>
   <i type="int" name="NBANDSGW">    -1</i>
   <i type="int" name="NBANDSO">    -1</i>
   <i type="int" name="NBANDSV">    -1</i>
   <i type="int" name="NELMGW">     1</i>
   <i type="int" name="NELMHF">     1</i>
   <i type="int" name="DIM">     3</i>
   <i type="int" name="IESPILON">     4</i>
   <i type="int" name="ANTIRES">     0</i>
   <i name="OMEGAMAX">    -30.00000000</i>
   <i name="OMEGAMIN">    -30.00000000</i>
   <i name="OMEGATL">   -200.00000000</i>
   <i type="int" name="OMEGAGRID">     0</i>
   <i name="CSHIFT">     -0.10000000</i>
   <i type="logical" name="LSELFENERGY"> F  </i>
   <i type="logical" name="LSPECTRAL"> F  </i>
   <i type="logical" name="LSPECTRALGW"> F  </i>
   <i type="logical" name="LSINGLES"> F  </i>
   <i type="logical" name="LFERMIGW"> F  </i>
   <i type="logical" name="ODDONLYGW"> F  </i>
   <i type="logical" name="EVENONLYGW"> F  </i>
   <i type="int" name="NKREDLFX">     1</i>
   <i type="int" name="NKREDLFY">     1</i>
   <i type="int" name="NKREDLFZ">     1</i>
   <i type="int" name="MAXMEM">  2800</i>
   <i type="int" name="TELESCOPE">     0</i>
   <i type="int" name="NTAUPAR">    -1</i>
   <i type="int" name="NOMEGAPAR">    -1</i>
   <i name="DAMP_NEWTON">      0.80000001</i>
   <i name="LAMBDA">      1.00000000</i>
  </separator>
  <separator name="External order field" >
   <i name="OFIELD_KAPPA">      0.00000000</i>
   <v name="OFIELD_K">      0.00000000      0.00000000      0.00000000</v>
   <i name="OFIELD_Q6_NEAR">      0.00000000</i>
   <i name="OFIELD_Q6_FAR">      0.00000000</i>
   <i name="OFIELD_A">      0.00000000</i>
  </separator>
  <separator name="optional k-points parameters" >
   <i type="int" name="KPOINTS_OPT_MODE">     1</i>
   <i type="logical" name="LKPOINTS_OPT"> F  </i>
  </separator>
 </parameters>
 <atominfo>
  <atoms>      36 </atoms>
  <types>       3 </types>
  <array name="atoms" >
   <dimension dim="1">ion</dimension>
   <field type="string">element</field>
   <field type="int">atomtype</field>
   <set>
    <rc><c>Cr</c><c>   1</c></rc>
    <rc><c>Cr</c><c>   1</c></rc>
    <rc><c>Cr</c><c>   1</c></rc>
    <rc><c>Cr</c><c>   1</c></rc>
    <rc><c>Cr</c><c>   1</c></rc>
    <rc><c>Cr</c><c>   1</c></rc>
    <rc><c>Cr</c><c>   1</c></rc>
    <rc><c>Cr</c><c>   1</c></rc>
    <rc><c>La</c><c>   2</c></rc>
    <rc><c>La</c><c>   2</c></rc>
    <rc><c>La</c><c>   2</c></rc>
    <rc><c>La</c><c>   2</c></rc>
    <rc><c>La</c><c>   2</c></rc>
    <rc><c>La</c><c>   2</c></rc>
    <rc><c>O </c><c>   3</c></rc>
    <rc><c>O </c><c>   3</c></rc>
    <rc><c>O </c><c>   3</c></rc>
    <rc><c>O </c><c>   3</c></rc>
    <rc><c>O </c><c>   3</c></rc>
    <rc><c>O </c><c>   3</c></rc>
    <rc><c>O </c><c>   3</c></rc>
    <rc><c>O </c><c>   3</c></rc>
    <rc><c>O </c><c>   3</c></rc>
    <rc><c>O </c><c>   3</c></rc>
    <rc><c>O </c><c>   3</c></rc>
    <rc><c>O </c><c>   3</c></rc>
    <rc><c>O </c><c>   3</c></rc>
    <rc><c>O </c><c>   3</c></rc>
    <rc><c>O </c><c>   3</c></rc>
    <rc><c>O </c><c>   3</c></rc>
    <rc><c>O </c><c>   3</c></rc>
    <rc><c>O </c><c>   3</c></rc>
    <rc><c>O </c><c>   3</c></rc>
    <rc><c>O </c><c>   3</c></rc>
    <rc><c>O </c><c>   3</c></rc>
    <rc><c>O </c><c>   3</c></rc>
   </set>
  </array>
  <array name="atomtypes" >
   <dimension dim="1">type</dimension>
   <field type="int">atomspertype</field>
   <field type="string">element</field>
   <field>mass</field>
   <field>valence</field>
   <field type="string">pseudopotential</field>
   <set>
    <rc><c>   8</c><c>Cr</c><c>     51.99600000</c><c>     12.00000000</c><c>  PAW_PBE Cr_pv 02Aug2007               </c></rc>
    <rc><c>   6</c><c>La</c><c>    138.90000000</c><c>     11.00000000</c><c>  PAW_PBE La 06Sep2000                  </c></rc>
    <rc><c>  22</c><c>O </c><c>     16.00000000</c><c>      6.00000000</c><c>  PAW_PBE O 08Apr2002                   </c></rc>
   </set>
  </array>
 </atominfo>
 <structure name="initialpos" >
  <crystal>
   <varray name="basis" >
    <v>       5.53670000       0.00000000       0.00000000 </v>
    <v>       0.00000000       5.74730000       0.00000000 </v>
    <v>       0.00000000       0.00000000      29.09039264 </v>
   </varray>
   <i name="volume">    925.68759245 </i>
   <varray name="rec_basis" >
    <v>       0.18061300       0.00000000       0.00000000 </v>
    <v>       0.00000000       0.17399475       0.00000000 </v>
    <v>       0.00000000       0.00000000       0.03437561 </v>
   </varray>
  </crystal>
  <varray name="positions" >
   <v>       0.00000000       0.50000000       0.00343756 </v>
   <v>       0.50000000       0.00000000       0.00343756 </v>
   <v>       0.50000000       0.00000000       0.13566163 </v>
   <v>       0.00000000       0.50000000       0.13566163 </v>
   <v>       0.99986929       0.49938438       0.26937126 </v>
   <v>       0.50013071       0.99938438       0.26937126 </v>
   <v>       0.48939587       0.00315503       0.40006453 </v>
   <v>       0.01060413       0.50315503       0.40006453 </v>
   <v>       0.50780000       0.54900000       0.06954959 </v>
   <v>       0.99220000       0.04900000       0.06954959 </v>
   <v>       0.49220000       0.45100000       0.20177366 </v>
   <v>       0.00780000       0.95100000       0.20177366 </v>
   <v>       0.50957389       0.54416646       0.33581737 </v>
   <v>       0.99042611       0.04416646       0.33581737 </v>
   <v>       0.77440000       0.80660000       0.01359237 </v>
   <v>       0.72560000       0.30660000       0.01359237 </v>
   <v>       0.42550000       0.98740000       0.06954959 </v>
   <v>       0.07450000       0.48740000       0.06954959 </v>
   <v>       0.72560000       0.30660000       0.12550682 </v>
   <v>       0.77440000       0.80660000       0.12550682 </v>
   <v>       0.22560000       0.19340000       0.14581644 </v>
   <v>       0.27440000       0.69340000       0.14581644 </v>
   <v>       0.57450000       0.01260000       0.20177366 </v>
   <v>       0.92550000       0.51260000       0.20177366 </v>
   <v>       0.28870533       0.69634117       0.25614362 </v>
   <v>       0.21129467       0.19634117       0.25614362 </v>
   <v>       0.79204805       0.80781865       0.27752619 </v>
   <v>       0.70795195       0.30781865       0.27752619 </v>
   <v>       0.42984338       0.00357119       0.33324504 </v>
   <v>       0.07015662       0.50357119       0.33324504 </v>
   <v>       0.71908670       0.30128723       0.38774270 </v>
   <v>       0.78091330       0.80128723       0.38774270 </v>
   <v>       0.21339458       0.19228727       0.40834875 </v>
   <v>       0.28660542       0.69228727       0.40834875 </v>
   <v>       0.00000000       0.39814211       0.47022484 </v>
   <v>       0.00000000       0.60185789       0.45557595 </v>
  </varray>
  <varray name="selective"  type="logical" >
   <v type="logical" >  F  F  F </v>
   <v type="logical" >  F  F  F </v>
   <v type="logical" >  F  F  F </v>
   <v type="logical" >  F  F  F </v>
   <v type="logical" >  T  T  T </v>
   <v type="logical" >  T  T  T </v>
   <v type="logical" >  T  T  T </v>
   <v type="logical" >  T  T  T </v>
   <v type="logical" >  F  F  F </v>
   <v type="logical" >  F  F  F </v>
   <v type="logical" >  F  F  F </v>
   <v type="logical" >  F  F  F </v>
   <v type="logical" >  T  T  T </v>
   <v type="logical" >  T  T  T </v>
   <v type="logical" >  F  F  F </v>
   <v type="logical" >  F  F  F </v>
   <v type="logical" >  F  F  F </v>
   <v type="logical" >  F  F  F </v>
   <v type="logical" >  F  F  F </v>
   <v type="logical" >  F  F  F </v>
   <v type="logical" >  F  F  F </v>
   <v type="logical" >  F  F  F </v>
   <v type="logical" >  F  F  F </v>
   <v type="logical" >  F  F  F </v>
   <v type="logical" >  T  T  T </v>
   <v type="logical" >  T  T  T </v>
   <v type="logical" >  T  T  T </v>
   <v type="logical" >  T  T  T </v>
   <v type="logical" >  T  T  T </v>
   <v type="logical" >  T  T  T </v>
   <v type="logical" >  T  T  T </v>
   <v type="logical" >  T  T  T </v>
   <v type="logical" >  T  T  T </v>
   <v type="logical" >  T  T  T </v>
   <v type="logical" >  T  T  T </v>
   <v type="logical" >  T  T  T </v>
  </varray>
  <nose>
   <v>      -3.00000000       0.00000000       0.00010000       0.00010000 </v>
  </nose>
 </structure>
 <calculation>
  <scstep>
   <time name="dav">    0.40    0.41</time>
   <time name="total">    1.29    1.29</time>
   <dipole>
    <v name="dipole">      0.00000000       0.00000000       0.00015244 </v>
    <i name="Tr[quadrupol]">  -1850.11818602 </i>
    <i name="Echarged">      0.00000000 </i>
    <i name="Edipol_quadrupol">      0.00000000 </i>
    <i name="Eion">      0.00000000 </i>
   </dipole>
   <energy>
    <i name="alphaZ">    614.47866018 </i>
    <i name="ewald"> 142063.08803817 </i>
    <i name="hartreedc">-167136.27315147 </i>
    <i name="XCdc">   1234.74689852 </i>
    <i name="pawpsdc">  21946.09436712 </i>
    <i name="pawaedc"> -22368.83934981 </i>
    <i name="eentropy">     -0.21663604 </i>
    <i name="bandstr">    321.03344689 </i>
    <i name="atom">  27888.74374147 </i>
    <i name="e_fr_energy">   4562.85601501 </i>
    <i name="e_wo_entrp">   4563.07265106 </i>
    <i name="e_0_energy">   4562.96433304 </i>
   </energy>
  </scstep>
  <scstep>
   <time name="dav">    0.40    0.40</time>
   <time name="total">    0.40    0.40</time>
   <dipole>
    <v name="dipole">      0.00000000       0.00000000       0.00015244 </v>
    <i name="Tr[quadrupol]">  -1850.11818602 </i>
    <i name="Echarged">      0.00000000 </i>
    <i name="Edipol_quadrupol">      0.00000000 </i>
    <i name="Eion">      0.00000000 </i>
   </dipole>
   <energy>
    <i name="e_fr_energy">    964.46540252 </i>
    <i name="e_wo_entrp">    965.05492441 </i>
    <i name="e_0_energy">    964.76016346 </i>
   </energy>
  </scstep>
  <scstep>
   <time name="dav">    0.47    0.48</time>
   <time name="total">    0.47    0.48</time>
   <dipole>
    <v name="dipole">      0.00000000       0.00000000       0.00015244 </v>
    <i name="Tr[quadrupol]">  -1850.11818602 </i>
    <i name="Echarged">      0.00000000 </i>
    <i name="Edipol_quadrupol">      0.00000000 </i>
    <i name="Eion">      0.00000000 </i>
   </dipole>
   <energy>
    <i name="e_fr_energy">   -171.05344192 </i>
    <i name="e_wo_entrp">   -169.79848318 </i>
    <i name="e_0_energy">   -170.42596255 </i>
   </energy>
  </scstep>
  <scstep>
   <time name="dav">    0.54    0.55</time>
   <time name="total">    0.55    0.55</time>
   <dipole>
    <v name="dipole">      0.00000000       0.00000000       0.00015244 </v>
    <i name="Tr[quadrupol]">  -1850.11818602 </i>
    <i name="Echarged">      0.00000000 </i>
    <i name="Edipol_quadrupol">      0.00000000 </i>
    <i name="Eion">      0.00000000 </i>
   </dipole>
   <energy>
    <i name="e_fr_energy">   -349.88656347 </i>
    <i name="e_wo_entrp">   -348.21577889 </i>
    <i name="e_0_energy">   -349.05117118 </i>
   </energy>
  </scstep>
  <scstep>
   <time name="dav">    0.61    0.62</time>
   <time name="total">    0.63    0.64</time>
   <dipole>
    <v name="dipole">      0.00000000       0.00000000       0.00015244 </v>
    <i name="Tr[quadrupol]">  -1850.11818602 </i>
    <i name="Echarged">      0.00000000 </i>
    <i name="Edipol_quadrupol">      0.00000000 </i>
    <i name="Eion">      0.00000000 </i>
   </dipole>
   <energy>
    <i name="e_fr_energy">   -366.88137853 </i>
    <i name="e_wo_entrp">   -365.53168356 </i>
    <i name="e_0_energy">   -366.20653105 </i>
   </energy>
  </scstep>
  <scstep>
   <time name="dav">    0.57    0.57</time>
   <time name="total">    1.53    1.54</time>
   <dipole>
    <v name="dipole">      0.00000000       0.00000000       1.78267357 </v>
    <i name="Tr[quadrupol]">  -1876.01093066 </i>
    <i name="Echarged">      0.00000000 </i>
    <i name="Edipol_quadrupol">      0.00000000 </i>
    <i name="Eion">      0.00000000 </i>
   </dipole>
   <energy>
    <i name="e_fr_energy">   -601.03910852 </i>
    <i name="e_wo_entrp">   -600.73418026 </i>
    <i name="e_0_energy">   -600.88664439 </i>
   </energy>
  </scstep>
  <scstep>
   <time name="dav">    0.61    0.61</time>
   <time name="total">    1.56    1.58</time>
   <dipole>
    <v name="dipole">      0.00000000       0.00000000      -0.47931601 </v>
    <i name="Tr[quadrupol]">  -1866.21708956 </i>
    <i name="Echarged">      0.00000000 </i>
    <i name="Edipol_quadrupol">      0.00000000 </i>
    <i name="Eion">      0.00000000 </i>
   </dipole>
   <energy>
    <i name="e_fr_energy">   -434.40677337 </i>
    <i name="e_wo_entrp">   -434.05224339 </i>
    <i name="e_0_energy">   -434.22950838 </i>
   </energy>
  </scstep>
  <scstep>
   <time name="dav">    0.64    0.64</time>
   <time name="total">    1.59    1.60</time>
   <dipole>
    <v name="dipole">      0.00000000       0.00000000       3.92147098 </v>
    <i name="Tr[quadrupol]">  -1863.07747636 </i>
    <i name="Echarged">      0.00000000 </i>
    <i name="Edipol_quadrupol">      0.00000000 </i>
    <i name="Eion">      0.00000000 </i>
   </dipole>
   <energy>
    <i name="e_fr_energy">   -871.41844150 </i>
    <i name="e_wo_entrp">   -871.10862090 </i>
    <i name="e_0_energy">   -871.26353120 </i>
   </energy>
  </scstep>
  <scstep>
   <time name="dav">    0.64    0.64</time>
   <time name="total">    1.59    1.60</time>
   <dipole>
    <v name="dipole">      0.00000000       0.00000000       4.25872559 </v>
    <i name="Tr[quadrupol]">  -1863.49318211 </i>
    <i name="Echarged">      0.00000000 </i>
    <i name="Edipol_quadrupol">      0.00000000 </i>
    <i name="Eion">      0.00000000 </i>
   </dipole>
   <energy>
    <i name="e_fr_energy">  -1076.82618208 </i>
    <i name="e_wo_entrp">  -1076.26471790 </i>
    <i name="e_0_energy">  -1076.54544999 </i>
   </energy>
  </scstep>
  <scstep>
   <time name="dav">    0.66    0.66</time>
   <time name="total">    1.61    1.63</time>
   <dipole>
    <v name="dipole">      0.00000000       0.00000000       4.27804246 </v>
    <i name="Tr[quadrupol]">  -1866.62487641 </i>
    <i name="Echarged">      0.00000000 </i>
    <i name="Edipol_quadrupol">      0.00000000 </i>
    <i name="Eion">      0.00000000 </i>
   </dipole>
   <energy>
    <i name="e_fr_energy">  -1112.92188771 </i>
    <i name="e_wo_entrp">  -1112.46958056 </i>
    <i name="e_0_energy">  -1112.69573413 </i>
   </energy>
  </scstep>
  <scstep>
   <time name="dav">    0.58    0.58</time>
   <time name="total">    1.53    1.55</time>
   <dipole>
    <v name="dipole">      0.00000000       0.00000000       4.01563350 </v>
    <i name="Tr[quadrupol]">  -1865.66578513 </i>
    <i name="Echarged">      0.00000000 </i>
    <i name="Edipol_quadrupol">      0.00000000 </i>
    <i name="Eion">      0.00000000 </i>
   </dipole>
   <energy>
    <i name="e_fr_energy">  -1040.96478529 </i>
    <i name="e_wo_entrp">  -1040.50232207 </i>
    <i name="e_0_energy">  -1040.73355368 </i>
   </energy>
  </scstep>
  <scstep>
   <time name="dav">    0.66    0.66</time>
   <time name="total">    1.61    1.62</time>
   <dipole>
    <v name="dipole">      0.00000000       0.00000000       3.72321665 </v>
    <i name="Tr[quadrupol]">  -1864.24116721 </i>
    <i name="Echarged">      0.00000000 </i>
    <i name="Edipol_quadrupol">      0.00000000 </i>
    <i name="Eion">      0.00000000 </i>
   </dipole>
   <energy>
    <i name="e_fr_energy">   -961.09798209 </i>
    <i name="e_wo_entrp">   -960.79973438 </i>
    <i name="e_0_energy">   -960.94885823 </i>
   </energy>
  </scstep>
  <scstep>
   <time name="dav">    0.53    0.53</time>
   <time name="total">    1.48    1.49</time>
   <dipole>
    <v name="dipole">      0.00000000       0.00000000       2.36754304 </v>
    <i name="Tr[quadrupol]">  -1852.81627123 </i>
    <i name="Echarged">      0.00000000 </i>
    <i name="Edipol_quadrupol">      0.00000000 </i>
    <i name="Eion">      0.00000000 </i>
   </dipole>
   <energy>
    <i name="e_fr_energy">   -674.25402084 </i>
    <i name="e_wo_entrp">   -673.87114210 </i>
    <i name="e_0_energy">   -674.06258147 </i>
   </energy>
  </scstep>
  <scstep>
   <time name="dav">    0.57    0.57</time>
   <time name="total">    1.52    1.53</time>
   <dipole>
    <v name="dipole">      0.00000000       0.00000000       0.69409425 </v>
    <i name="Tr[quadrupol]">  -1841.23868075 </i>
    <i name="Echarged">      0.00000000 </i>
    <i name="Edipol_quadrupol">      0.00000000 </i>
    <i name="Eion">      0.00000000 </i>
   </dipole>
   <energy>
    <i name="e_fr_energy">   -486.15539550 </i>
    <i name="e_wo_entrp">   -486.03896892 </i>
    <i name="e_0_energy">   -486.09718221 </i>
   </energy>
  </scstep>
  <scstep>
   <time name="dav">    0.56    0.56</time>
   <time name="total">    1.51    1.53</time>
   <dipole>
    <v name="dipole">      0.00000000       0.00000000      -3.73694904 </v>
    <i name="Tr[quadrupol]">  -1846.87121418 </i>
    <i name="Echarged">      0.00000000 </i>
    <i name="Edipol_quadrupol">      0.00000000 </i>
    <i name="Eion">      0.00000000 </i>
   </dipole>
   <energy>
    <i name="e_fr_energy">   -376.94968500 </i>
    <i name="e_wo_entrp">   -376.68704789 </i>
    <i name="e_0_energy">   -376.81836645 </i>
   </energy>
  </scstep>
  <scstep>
   <time name="dav">    0.66    0.66</time>
   <time name="total">    1.62    1.63</time>
   <dipole>
    <v name="dipole">      0.00000000       0.00000000      -3.68070010 </v>
    <i name="Tr[quadrupol]">  -1847.81720197 </i>
    <i name="Echarged">      0.00000000 </i>
    <i name="Edipol_quadrupol">      0.00000000 </i>
    <i name="Eion">      0.00000000 </i>
   </dipole>
   <energy>
    <i name="e_fr_energy">   -573.43394887 </i>
    <i name="e_wo_entrp">   -573.21425507 </i>
    <i name="e_0_energy">   -573.32410197 </i>
   </energy>
  </scstep>
  <scstep>
   <time name="dav">    0.57    0.57</time>
   <time name="total">    1.52    1.53</time>
   <dipole>
    <v name="dipole">      0.00000000       0.00000000      -1.46791434 </v>
    <i name="Tr[quadrupol]">  -1824.16048255 </i>
    <i name="Echarged">      0.00000000 </i>
    <i name="Edipol_quadrupol">      0.00000000 </i>
    <i name="Eion">      0.00000000 </i>
   </dipole>
   <energy>
    <i name="e_fr_energy">   -359.20376612 </i>
    <i name="e_wo_entrp">   -358.88015049 </i>
    <i name="e_0_energy">   -359.04195831 </i>
   </energy>
  </scstep>
  <scstep>
   <time name="dav">    0.49    0.49</time>
   <time name="total">    1.45    1.46</time>
   <dipole>
    <v name="dipole">      0.00000000       0.00000000      -0.26657102 </v>
    <i name="Tr[quadrupol]">  -1821.90179542 </i>
    <i name="Echarged">      0.00000000 </i>
    <i name="Edipol_quadrupol">      0.00000000 </i>
    <i name="Eion">      0.00000000 </i>
   </dipole>
   <energy>
    <i name="e_fr_energy">   -308.14063596 </i>
    <i name="e_wo_entrp">   -307.79976959 </i>
    <i name="e_0_energy">   -307.97020278 </i>
   </energy>
  </scstep>
  <scstep>
   <time name="dav">    0.59    0.59</time>
   <time name="total">    1.54    1.55</time>
   <dipole>
    <v name="dipole">      0.00000000       0.00000000      -1.48446933 </v>
    <i name="Tr[quadrupol]">  -1824.16913985 </i>
    <i name="Echarged">      0.00000000 </i>
    <i name="Edipol_quadrupol">      0.00000000 </i>
    <i name="Eion">      0.00000000 </i>
   </dipole>
   <energy>
    <i name="e_fr_energy">   -339.42359764 </i>
    <i name="e_wo_entrp">   -339.13976693 </i>
    <i name="e_0_energy">   -339.28168228 </i>
   </energy>
  </scstep>
  <scstep>
   <time name="dav">    0.46    0.46</time>
   <time name="total">    1.42    1.43</time>
   <dipole>
    <v name="dipole">      0.00000000       0.00000000      -1.33882239 </v>
    <i name="Tr[quadrupol]">  -1819.43567011 </i>
    <i name="Echarged">      0.00000000 </i>
    <i name="Edipol_quadrupol">      0.00000000 </i>
    <i name="Eion">      0.00000000 </i>
   </dipole>
   <energy>
    <i name="e_fr_energy">   -301.15483122 </i>
    <i name="e_wo_entrp">   -300.64433882 </i>
    <i name="e_0_energy">   -300.89958502 </i>
   </energy>
  </scstep>
  <scstep>
   <time name="dav">    0.62    0.62</time>
   <time name="total">    1.57    1.58</time>
   <dipole>
    <v name="dipole">      0.00000000       0.00000000      -1.40569467 </v>
    <i name="Tr[quadrupol]">  -1819.26770462 </i>
    <i name="Echarged">      0.00000000 </i>
    <i name="Edipol_quadrupol">      0.00000000 </i>
    <i name="Eion">      0.00000000 </i>
   </dipole>
   <energy>
    <i name="e_fr_energy">   -303.69708684 </i>
    <i name="e_wo_entrp">   -303.25045940 </i>
    <i name="e_0_energy">   -303.47377312 </i>
   </energy>
  </scstep>
  <scstep>
   <time name="dav">    0.49    0.49</time>
   <time name="total">    1.44    1.45</time>
   <dipole>
    <v name="dipole">      0.00000000       0.00000000      -1.37112086 </v>
    <i name="Tr[quadrupol]">  -1818.37205296 </i>
    <i name="Echarged">      0.00000000 </i>
    <i name="Edipol_quadrupol">      0.00000000 </i>
    <i name="Eion">      0.00000000 </i>
   </dipole>
   <energy>
    <i name="e_fr_energy">   -297.97005787 </i>
    <i name="e_wo_entrp">   -297.51468082 </i>
    <i name="e_0_energy">   -297.74236934 </i>
   </energy>
  </scstep>
  <scstep>
   <time name="dav">    0.53    0.54</time>
   <time name="total">    1.49    1.50</time>
   <dipole>
    <v name="dipole">      0.00000000       0.00000000      -1.37501359 </v>
    <i name="Tr[quadrupol]">  -1817.86767709 </i>
    <i name="Echarged">      0.00000000 </i>
    <i name="Edipol_quadrupol">      0.00000000 </i>
    <i name="Eion">      0.00000000 </i>
   </dipole>
   <energy>
    <i name="e_fr_energy">   -296.60397900 </i>
    <i name="e_wo_entrp">   -296.01902737 </i>
    <i name="e_0_energy">   -296.31150319 </i>
   </energy>
  </scstep>
  <scstep>
   <time name="dav">    0.45    0.46</time>
   <time name="total">    1.41    1.42</time>
   <dipole>
    <v name="dipole">      0.00000000       0.00000000      -1.45355251 </v>
    <i name="Tr[quadrupol]">  -1817.93450686 </i>
    <i name="Echarged">      0.00000000 </i>
    <i name="Edipol_quadrupol">      0.00000000 </i>
    <i name="Eion">      0.00000000 </i>
   </dipole>
   <energy>
    <i name="e_fr_energy">   -298.55545244 </i>
    <i name="e_wo_entrp">   -297.99622522 </i>
    <i name="e_0_energy">   -298.27583883 </i>
   </energy>
  </scstep>
  <scstep>
   <time name="dav">    0.57    0.57</time>
   <time name="total">    1.53    1.53</time>
   <dipole>
    <v name="dipole">      0.00000000       0.00000000      -1.59857401 </v>
    <i name="Tr[quadrupol]">  -1819.21880558 </i>
    <i name="Echarged">      0.00000000 </i>
    <i name="Edipol_quadrupol">      0.00000000 </i>
    <i name="Eion">      0.00000000 </i>
   </dipole>
   <energy>
    <i name="e_fr_energy">   -294.82326702 </i>
    <i name="e_wo_entrp">   -294.08768253 </i>
    <i name="e_0_energy">   -294.45547477 </i>
   </energy>
  </scstep>
  <scstep>
   <time name="dav">    0.48    0.48</time>
   <time name="total">    1.43    1.44</time>
   <dipole>
    <v name="dipole">      0.00000000       0.00000000      -1.62488420 </v>
    <i name="Tr[quadrupol]">  -1818.64913382 </i>
    <i name="Echarged">      0.00000000 </i>
    <i name="Edipol_quadrupol">      0.00000000 </i>
    <i name="Eion">      0.00000000 </i>
   </dipole>
   <energy>
    <i name="e_fr_energy">   -295.61802944 </i>
    <i name="e_wo_entrp">   -294.99676976 </i>
    <i name="e_0_energy">   -295.30739960 </i>
   </energy>
  </scstep>
  <scstep>
   <time name="dav">    0.55    0.55</time>
   <time name="total">    1.50    1.51</time>
   <dipole>
    <v name="dipole">      0.00000000       0.00000000      -1.63470395 </v>
    <i name="Tr[quadrupol]">  -1818.60084200 </i>
    <i name="Echarged">      0.00000000 </i>
    <i name="Edipol_quadrupol">      0.00000000 </i>
    <i name="Eion">      0.00000000 </i>
   </dipole>
   <energy>
    <i name="e_fr_energy">   -295.15428893 </i>
    <i name="e_wo_entrp">   -294.57249109 </i>
    <i name="e_0_energy">   -294.86339001 </i>
   </energy>
  </scstep>
  <scstep>
   <time name="dav">    0.59    0.59</time>
   <time name="total">    1.54    1.55</time>
   <dipole>
    <v name="dipole">      0.00000000       0.00000000      -1.63494737 </v>
    <i name="Tr[quadrupol]">  -1818.46091094 </i>
    <i name="Echarged">      0.00000000 </i>
    <i name="Edipol_quadrupol">      0.00000000 </i>
    <i name="Eion">      0.00000000 </i>
   </dipole>
   <energy>
    <i name="e_fr_energy">   -295.06255448 </i>
    <i name="e_wo_entrp">   -294.45263541 </i>
    <i name="e_0_energy">   -294.75759494 </i>
   </energy>
  </scstep>
  <scstep>
   <time name="dav">    0.48    0.48</time>
   <time name="total">    1.43    1.44</time>
   <dipole>
    <v name="dipole">      0.00000000       0.00000000      -1.63987029 </v>
    <i name="Tr[quadrupol]">  -1818.51274167 </i>
    <i name="Echarged">      0.00000000 </i>
    <i name="Edipol_quadrupol">      0.00000000 </i>
    <i name="Eion">      0.00000000 </i>
   </dipole>
   <energy>
    <i name="e_fr_energy">   -294.78909367 </i>
    <i name="e_wo_entrp">   -294.12245808 </i>
    <i name="e_0_energy">   -294.45577588 </i>
   </energy>
  </scstep>
  <scstep>
   <time name="dav">    0.47    0.47</time>
   <time name="total">    1.40    1.41</time>
   <dipole>
    <v name="dipole">      0.00000000       0.00000000      -1.66649035 </v>
    <i name="Tr[quadrupol]">  -1818.54372141 </i>
    <i name="Echarged">      0.00000000 </i>
    <i name="Edipol_quadrupol">      0.00000000 </i>
    <i name="Eion">      0.00000000 </i>
   </dipole>
   <energy>
    <i name="alphaZ">    678.26706457 </i>
    <i name="ewald"> 142063.08803817 </i>
    <i name="hartreedc">-166584.50197964 </i>
    <i name="XCdc">   1245.97526678 </i>
    <i name="pawpsdc">  25960.46845804 </i>
    <i name="pawaedc"> -26408.75221859 </i>
    <i name="eentropy">     -0.59890762 </i>
    <i name="bandstr">  -5137.56682054 </i>
    <i name="atom">  27888.74374147 </i>
    <i name="e_fr_energy">   -294.87735735 </i>
    <i name="e_wo_entrp">   -294.27844973 </i>
    <i name="e_0_energy">   -294.57790354 </i>
   </energy>
  </scstep>
  <structure>
   <crystal>
    <varray name="basis" >
     <v>       5.53670000       0.00000000       0.00000000 </v>
     <v>       0.00000000       5.74730000       0.00000000 </v>
     <v>       0.00000000       0.00000000      29.09039264 </v>
    </varray>
    <i name="volume">    925.68759245 </i>
    <varray name="rec_basis" >
     <v>       0.18061300       0.00000000       0.00000000 </v>
     <v>       0.00000000       0.17399475       0.00000000 </v>
     <v>       0.00000000       0.00000000       0.03437561 </v>
    </varray>
   </crystal>
   <varray name="positions" >
    <v>       0.00000000       0.50000000       0.00343756 </v>
    <v>       0.50000000       0.00000000       0.00343756 </v>
    <v>       0.50000000       0.00000000       0.13566163 </v>
    <v>       0.00000000       0.50000000       0.13566163 </v>
    <v>       0.99986929       0.49938438       0.26937126 </v>
    <v>       0.50013071       0.99938438       0.26937126 </v>
    <v>       0.48939587       0.00315503       0.40006453 </v>
    <v>       0.01060413       0.50315503       0.40006453 </v>
    <v>       0.50780000       0.54900000       0.06954959 </v>
    <v>       0.99220000       0.04900000       0.06954959 </v>
    <v>       0.49220000       0.45100000       0.20177366 </v>
    <v>       0.00780000       0.95100000       0.20177366 </v>
    <v>       0.50957389       0.54416646       0.33581737 </v>
    <v>       0.99042611       0.04416646       0.33581737 </v>
    <v>       0.77440000       0.80660000       0.01359237 </v>
    <v>       0.72560000       0.30660000       0.01359237 </v>
    <v>       0.42550000       0.98740000       0.06954959 </v>
    <v>       0.07450000       0.48740000       0.06954959 </v>
    <v>       0.72560000       0.30660000       0.12550682 </v>
    <v>       0.77440000       0.80660000       0.12550682 </v>
    <v>       0.22560000       0.19340000       0.14581644 </v>
    <v>       0.27440000       0.69340000       0.14581644 </v>
    <v>       0.57450000       0.01260000       0.20177366 </v>
    <v>       0.92550000       0.51260000       0.20177366 </v>
    <v>       0.28870533       0.69634117       0.25614362 </v>
    <v>       0.21129467       0.19634117       0.25614362 </v>
    <v>       0.79204805       0.80781865       0.27752619 </v>
    <v>       0.70795195       0.30781865       0.27752619 </v>
    <v>       0.42984338       0.00357119       0.33324504 </v>
    <v>       0.07015662       0.50357119       0.33324504 </v>
    <v>       0.71908670       0.30128723       0.38774270 </v>
    <v>       0.78091330       0.80128723       0.38774270 </v>
    <v>       0.21339458       0.19228727       0.40834875 </v>
    <v>       0.28660542       0.69228727       0.40834875 </v>
    <v>       0.00000000       0.39814211       0.47022484 </v>
    <v>       0.00000000       0.60185789       0.45557595 </v>
   </varray>
  </structure>
  <varray name="forces" >
   <v>      -3.95492839       1.59355418       0.12673439 </v>
   <v>       4.81297923       1.42160425       0.21251873 </v>
   <v>       0.25123397       0.52914386      -0.89750950 </v>
   <v>      -0.30859939       0.58007042      -0.98500761 </v>
   <v>      -0.07287396       1.03067573      -1.45807657 </v>
   <v>       0.14435132       1.00139755      -1.48893201 </v>
   <v>      -1.48309783       0.06405181      -1.37483784 </v>
   <v>       0.40382281      -0.57909541      -0.00144952 </v>
   <v>       1.44880382      -0.76430841      -0.25909650 </v>
   <v>      -1.47690574      -0.47512277      -0.29039286 </v>
   <v>      -0.62059972       1.35802632      -0.76365496 </v>
   <v>       0.51389217       1.14955152      -0.75419415 </v>
   <v>       1.21268044       0.66872456       0.27287229 </v>
   <v>      -1.01548296       0.25847832       0.38028559 </v>
   <v>       2.74509113       0.52456366       0.85457016 </v>
   <v>      -3.31528823       0.45391200       1.05399936 </v>
   <v>       0.90616095       1.94045232      -2.95051838 </v>
   <v>      -0.56710955       2.08140757      -2.79905512 </v>
   <v>      -4.04135178       0.26879686      -4.78571603 </v>
   <v>       3.70697379       0.01558271      -4.75011680 </v>
   <v>      -5.37462755       0.23115230       0.83099716 </v>
   <v>       5.44864713       0.13793792       0.75827337 </v>
   <v>      -0.49988680      -2.19872770      -3.10297311 </v>
   <v>       0.41478426      -2.21920643      -3.11653199 </v>
   <v>      -2.30226286       1.24900163       3.46245174 </v>
   <v>       2.33366272       1.09643508       3.44953795 </v>
   <v>      -0.62846400       1.78437437       0.71672667 </v>
   <v>       0.47032234       1.58810446       0.71992884 </v>
   <v>      -0.07759089      -4.46331843       1.35639511 </v>
   <v>       0.01930612      -4.30301970       1.30762217 </v>
   <v>      -1.56206449      -0.65692675       0.72873886 </v>
   <v>       1.38772585      -0.46206331       0.49217864 </v>
   <v>      -0.22155744      -2.79494925       2.93905558 </v>
   <v>       3.18516269      -1.13969774       1.73676098 </v>
   <v>      -0.49790626     -11.33185343       5.54792762 </v>
   <v>      -1.38500289      10.36128994       2.83048774 </v>
  </varray>
  <varray name="stress" >
   <v>     242.80372907       1.88015142      -1.56126153 </v>
   <v>       1.88023948     232.01269887      13.71388616 </v>
   <v>      -1.55963339      13.71567814    -222.50205258 </v>
  </varray>
  <energy>
   <i name="e_fr_energy">   -294.87735735 </i>
   <i name="e_wo_entrp">   -294.27844973 </i>
   <i name="e_0_energy">   -294.57790354 </i>
  </energy>
  <time name="totalsc">   43.42   43.74</time>
 </calculation>
 <calculation>
  <scstep>
   <time name="dav">    0.38    0.38</time>
   <time name="total">    1.33    1.33</time>
   <dipole>
    <v name="dipole">      0.00000000       0.00000000      -1.73479055 </v>
    <i name="Tr[quadrupol]">  -1806.17479886 </i>
    <i name="Echarged">      0.00000000 </i>
    <i name="Edipol_quadrupol">      0.00000000 </i>
    <i name="Eion">      0.00000000 </i>
   </dipole>
   <energy>
    <i name="alphaZ">    681.39528442 </i>
    <i name="ewald"> 141507.01658709 </i>
    <i name="hartreedc">-166034.31313836 </i>
    <i name="XCdc">   1244.53073677 </i>
    <i name="pawpsdc">  25963.04377039 </i>
    <i name="pawaedc"> -26410.85192310 </i>
    <i name="eentropy">     -0.61393905 </i>
    <i name="bandstr">  -5131.90728126 </i>
    <i name="atom">  27888.74374147 </i>
    <i name="e_fr_energy">   -292.95616162 </i>
    <i name="e_wo_entrp">   -292.34222257 </i>
    <i name="e_0_energy">   -292.64919209 </i>
   </energy>
  </scstep>
  <scstep>
   <time name="dav">    0.61    0.61</time>
   <time name="total">    1.56    1.57</time>
   <dipole>
    <v name="dipole">      0.00000000       0.00000000       1.77303726 </v>
    <i name="Tr[quadrupol]">  -1819.65103912 </i>
    <i name="Echarged">      0.00000000 </i>
    <i name="Edipol_quadrupol">      0.00000000 </i>
    <i name="Eion">      0.00000000 </i>
   </dipole>
   <energy>
    <i name="e_fr_energy">   -630.01733540 </i>
    <i name="e_wo_entrp">   -629.60592792 </i>
    <i name="e_0_energy">   -629.81163166 </i>
   </energy>
  </scstep>
  <scstep>
   <time name="dav">    0.58    0.58</time>
   <time name="total">    1.53    1.54</time>
   <dipole>
    <v name="dipole">      0.00000000       0.00000000       0.10437245 </v>
    <i name="Tr[quadrupol]">  -1821.10476170 </i>
    <i name="Echarged">      0.00000000 </i>
    <i name="Edipol_quadrupol">      0.00000000 </i>
    <i name="Eion">      0.00000000 </i>
   </dipole>
   <energy>
    <i name="e_fr_energy">   -352.39580811 </i>
    <i name="e_wo_entrp">   -352.06437718 </i>
    <i name="e_0_energy">   -352.23009265 </i>
   </energy>
  </scstep>
  <scstep>
   <time name="dav">    0.59    0.59</time>
   <time name="total">    1.54    1.55</time>
   <dipole>
    <v name="dipole">      0.00000000       0.00000000      -0.33070877 </v>
    <i name="Tr[quadrupol]">  -1821.52440400 </i>
    <i name="Echarged">      0.00000000 </i>
    <i name="Edipol_quadrupol">      0.00000000 </i>
    <i name="Eion">      0.00000000 </i>
   </dipole>
   <energy>
    <i name="e_fr_energy">   -364.35645804 </i>
    <i name="e_wo_entrp">   -364.19556987 </i>
    <i name="e_0_energy">   -364.27601396 </i>
   </energy>
  </scstep>
  <scstep>
   <time name="dav">    0.61    0.61</time>
   <time name="total">    1.57    1.58</time>
   <dipole>
    <v name="dipole">      0.00000000       0.00000000      -0.45245399 </v>
    <i name="Tr[quadrupol]">  -1821.74399287 </i>
    <i name="Echarged">      0.00000000 </i>
    <i name="Edipol_quadrupol">      0.00000000 </i>
    <i name="Eion">      0.00000000 </i>
   </dipole>
   <energy>
    <i name="e_fr_energy">   -367.24446617 </i>
    <i name="e_wo_entrp">   -367.08738452 </i>
    <i name="e_0_energy">   -367.16592534 </i>
   </energy>
  </scstep>
  <scstep>
   <time name="dav">    0.62    0.62</time>
   <time name="total">    1.57    1.58</time>
   <dipole>
    <v name="dipole">      0.00000000       0.00000000      -0.46215740 </v>
    <i name="Tr[quadrupol]">  -1821.84474774 </i>
    <i name="Echarged">      0.00000000 </i>
    <i name="Edipol_quadrupol">      0.00000000 </i>
    <i name="Eion">      0.00000000 </i>
   </dipole>
   <energy>
    <i name="e_fr_energy">   -368.69612870 </i>
    <i name="e_wo_entrp">   -368.54608472 </i>
    <i name="e_0_energy">   -368.62110671 </i>
   </energy>
  </scstep>
  <scstep>
   <time name="dav">    0.61    0.62</time>
   <time name="total">    1.57    1.58</time>
   <dipole>
    <v name="dipole">      0.00000000       0.00000000      -0.44772734 </v>
    <i name="Tr[quadrupol]">  -1821.79206940 </i>
    <i name="Echarged">      0.00000000 </i>
    <i name="Edipol_quadrupol">      0.00000000 </i>
    <i name="Eion">      0.00000000 </i>
   </dipole>
   <energy>
    <i name="e_fr_energy">   -368.97695235 </i>
    <i name="e_wo_entrp">   -368.82584085 </i>
    <i name="e_0_energy">   -368.90139660 </i>
   </energy>
  </scstep>
  <scstep>
   <time name="dav">    0.50    0.50</time>
   <time name="total">    1.45    1.46</time>
   <dipole>
    <v name="dipole">      0.00000000       0.00000000      -0.46476530 </v>
    <i name="Tr[quadrupol]">  -1821.74301278 </i>
    <i name="Echarged">      0.00000000 </i>
    <i name="Edipol_quadrupol">      0.00000000 </i>
    <i name="Eion">      0.00000000 </i>
   </dipole>
   <energy>
    <i name="e_fr_energy">   -368.42213157 </i>
    <i name="e_wo_entrp">   -368.27556156 </i>
    <i name="e_0_energy">   -368.34884657 </i>
   </energy>
  </scstep>
  <scstep>
   <time name="dav">    0.57    0.57</time>
   <time name="total">    1.53    1.53</time>
   <dipole>
    <v name="dipole">      0.00000000       0.00000000      -0.47956996 </v>
    <i name="Tr[quadrupol]">  -1821.84818082 </i>
    <i name="Echarged">      0.00000000 </i>
    <i name="Edipol_quadrupol">      0.00000000 </i>
    <i name="Eion">      0.00000000 </i>
   </dipole>
   <energy>
    <i name="e_fr_energy">   -368.17534833 </i>
    <i name="e_wo_entrp">   -368.03537271 </i>
    <i name="e_0_energy">   -368.10536052 </i>
   </energy>
  </scstep>
  <scstep>
   <time name="dav">    0.50    0.50</time>
   <time name="total">    1.46    1.47</time>
   <dipole>
    <v name="dipole">      0.00000000       0.00000000      -0.53992691 </v>
    <i name="Tr[quadrupol]">  -1822.06528885 </i>
    <i name="Echarged">      0.00000000 </i>
    <i name="Edipol_quadrupol">      0.00000000 </i>
    <i name="Eion">      0.00000000 </i>
   </dipole>
   <energy>
    <i name="e_fr_energy">   -363.32060781 </i>
    <i name="e_wo_entrp">   -363.17154261 </i>
    <i name="e_0_energy">   -363.24607521 </i>
   </energy>
  </scstep>
  <scstep>
   <time name="dav">    0.50    0.50</time>
   <time name="total">    1.45    1.46</time>
   <dipole>
    <v name="dipole">      0.00000000       0.00000000      -0.56320598 </v>
    <i name="Tr[quadrupol]">  -1821.84578572 </i>
    <i name="Echarged">      0.00000000 </i>
    <i name="Edipol_quadrupol">      0.00000000 </i>
    <i name="Eion">      0.00000000 </i>
   </dipole>
   <energy>
    <i name="e_fr_energy">   -361.57938373 </i>
    <i name="e_wo_entrp">   -361.43596758 </i>
    <i name="e_0_energy">   -361.50767566 </i>
   </energy>
  </scstep>
  <scstep>
   <time name="dav">    0.50    0.50</time>
   <time name="total">    1.46    1.47</time>
   <dipole>
    <v name="dipole">      0.00000000       0.00000000      -1.14719932 </v>
    <i name="Tr[quadrupol]">  -1820.84626729 </i>
    <i name="Echarged">      0.00000000 </i>
    <i name="Edipol_quadrupol">      0.00000000 </i>
    <i name="Eion">      0.00000000 </i>
   </dipole>
   <energy>
    <i name="e_fr_energy">   -326.05344111 </i>
    <i name="e_wo_entrp">   -325.71802989 </i>
    <i name="e_0_energy">   -325.88573550 </i>
   </energy>
  </scstep>
  <scstep>
   <time name="dav">    0.50    0.50</time>
   <time name="total">    1.46    1.47</time>
   <dipole>
    <v name="dipole">      0.00000000       0.00000000      -0.95048166 </v>
    <i name="Tr[quadrupol]">  -1815.05564177 </i>
    <i name="Echarged">      0.00000000 </i>
    <i name="Edipol_quadrupol">      0.00000000 </i>
    <i name="Eion">      0.00000000 </i>
   </dipole>
   <energy>
    <i name="e_fr_energy">   -290.15182545 </i>
    <i name="e_wo_entrp">   -289.66125429 </i>
    <i name="e_0_energy">   -289.90653987 </i>
   </energy>
  </scstep>
  <scstep>
   <time name="dav">    0.58    0.58</time>
   <time name="total">    1.54    1.55</time>
   <dipole>
    <v name="dipole">      0.00000000       0.00000000      -1.09872249 </v>
    <i name="Tr[quadrupol]">  -1818.65261202 </i>
    <i name="Echarged">      0.00000000 </i>
    <i name="Edipol_quadrupol">      0.00000000 </i>
    <i name="Eion">      0.00000000 </i>
   </dipole>
   <energy>
    <i name="e_fr_energy">   -294.68353612 </i>
    <i name="e_wo_entrp">   -294.20922529 </i>
    <i name="e_0_energy">   -294.44638071 </i>
   </energy>
  </scstep>
  <scstep>
   <time name="dav">    0.53    0.53</time>
   <time name="total">    1.50    1.50</time>
   <dipole>
    <v name="dipole">      0.00000000       0.00000000      -0.93113202 </v>
    <i name="Tr[quadrupol]">  -1819.89816897 </i>
    <i name="Echarged">      0.00000000 </i>
    <i name="Edipol_quadrupol">      0.00000000 </i>
    <i name="Eion">      0.00000000 </i>
   </dipole>
   <energy>
    <i name="e_fr_energy">   -290.66783833 </i>
    <i name="e_wo_entrp">   -290.28539256 </i>
    <i name="e_0_energy">   -290.47661544 </i>
   </energy>
  </scstep>
  <scstep>
   <time name="dav">    0.54    0.54</time>
   <time name="total">    1.50    1.51</time>
   <dipole>
    <v name="dipole">      0.00000000       0.00000000      -0.78429384 </v>
    <i name="Tr[quadrupol]">  -1820.59770634 </i>
    <i name="Echarged">      0.00000000 </i>
    <i name="Edipol_quadrupol">      0.00000000 </i>
    <i name="Eion">      0.00000000 </i>
   </dipole>
   <energy>
    <i name="e_fr_energy">   -290.93539170 </i>
    <i name="e_wo_entrp">   -290.59624321 </i>
    <i name="e_0_energy">   -290.76581745 </i>
   </energy>
  </scstep>
  <scstep>
   <time name="dav">    0.49    0.49</time>
   <time name="total">    1.45    1.45</time>
   <dipole>
    <v name="dipole">      0.00000000       0.00000000      -0.80611966 </v>
    <i name="Tr[quadrupol]">  -1820.98035952 </i>
    <i name="Echarged">      0.00000000 </i>
    <i name="Edipol_quadrupol">      0.00000000 </i>
    <i name="Eion">      0.00000000 </i>
   </dipole>
   <energy>
    <i name="e_fr_energy">   -290.92434353 </i>
    <i name="e_wo_entrp">   -290.48600899 </i>
    <i name="e_0_energy">   -290.70517626 </i>
   </energy>
  </scstep>
  <scstep>
   <time name="dav">    0.61    0.61</time>
   <time name="total">    1.57    1.58</time>
   <dipole>
    <v name="dipole">      0.00000000       0.00000000      -0.79278370 </v>
    <i name="Tr[quadrupol]">  -1821.36568783 </i>
    <i name="Echarged">      0.00000000 </i>
    <i name="Edipol_quadrupol">      0.00000000 </i>
    <i name="Eion">      0.00000000 </i>
   </dipole>
   <energy>
    <i name="e_fr_energy">   -291.05459859 </i>
    <i name="e_wo_entrp">   -290.64235556 </i>
    <i name="e_0_energy">   -290.84847708 </i>
   </energy>
  </scstep>
  <scstep>
   <time name="dav">    0.48    0.48</time>
   <time name="total">    1.44    1.45</time>
   <dipole>
    <v name="dipole">      0.00000000       0.00000000      -0.76733665 </v>
    <i name="Tr[quadrupol]">  -1821.61528122 </i>
    <i name="Echarged">      0.00000000 </i>
    <i name="Edipol_quadrupol">      0.00000000 </i>
    <i name="Eion">      0.00000000 </i>
   </dipole>
   <energy>
    <i name="e_fr_energy">   -291.24296646 </i>
    <i name="e_wo_entrp">   -290.83288775 </i>
    <i name="e_0_energy">   -291.03792710 </i>
   </energy>
  </scstep>
  <scstep>
   <time name="dav">    0.65    0.65</time>
   <time name="total">    1.60    1.62</time>
   <dipole>
    <v name="dipole">      0.00000000       0.00000000      -0.75999622 </v>
    <i name="Tr[quadrupol]">  -1821.66326781 </i>
    <i name="Echarged">      0.00000000 </i>
    <i name="Edipol_quadrupol">      0.00000000 </i>
    <i name="Eion">      0.00000000 </i>
   </dipole>
   <energy>
    <i name="e_fr_energy">   -291.33084397 </i>
    <i name="e_wo_entrp">   -290.93976828 </i>
    <i name="e_0_energy">   -291.13530613 </i>
   </energy>
  </scstep>
  <scstep>
   <time name="dav">    0.56    0.56</time>
   <time name="total">    1.51    1.52</time>
   <dipole>
    <v name="dipole">      0.00000000       0.00000000      -0.76436582 </v>
    <i name="Tr[quadrupol]">  -1821.80083552 </i>
    <i name="Echarged">      0.00000000 </i>
    <i name="Edipol_quadrupol">      0.00000000 </i>
    <i name="Eion">      0.00000000 </i>
   </dipole>
   <energy>
    <i name="e_fr_energy">   -291.36412545 </i>
    <i name="e_wo_entrp">   -290.96874605 </i>
    <i name="e_0_energy">   -291.16643575 </i>
   </energy>
  </scstep>
  <scstep>
   <time name="dav">    0.54    0.54</time>
   <time name="total">    1.50    1.50</time>
   <dipole>
    <v name="dipole">      0.00000000       0.00000000      -0.76683588 </v>
    <i name="Tr[quadrupol]">  -1821.74594189 </i>
    <i name="Echarged">      0.00000000 </i>
    <i name="Edipol_quadrupol">      0.00000000 </i>
    <i name="Eion">      0.00000000 </i>
   </dipole>
   <energy>
    <i name="e_fr_energy">   -291.14606745 </i>
    <i name="e_wo_entrp">   -290.72781436 </i>
    <i name="e_0_energy">   -290.93694091 </i>
   </energy>
  </scstep>
  <scstep>
   <time name="dav">    0.51    0.51</time>
   <time name="total">    1.47    1.47</time>
   <dipole>
    <v name="dipole">      0.00000000       0.00000000      -0.71007876 </v>
    <i name="Tr[quadrupol]">  -1822.44536070 </i>
    <i name="Echarged">      0.00000000 </i>
    <i name="Edipol_quadrupol">      0.00000000 </i>
    <i name="Eion">      0.00000000 </i>
   </dipole>
   <energy>
    <i name="e_fr_energy">   -292.49421868 </i>
    <i name="e_wo_entrp">   -292.06167734 </i>
    <i name="e_0_energy">   -292.27794801 </i>
   </energy>
  </scstep>
  <scstep>
   <time name="dav">    0.44    0.44</time>
   <time name="total">    1.40    1.41</time>
   <dipole>
    <v name="dipole">      0.00000000       0.00000000      -0.53239491 </v>
    <i name="Tr[quadrupol]">  -1826.15542462 </i>
    <i name="Echarged">      0.00000000 </i>
    <i name="Edipol_quadrupol">      0.00000000 </i>
    <i name="Eion">      0.00000000 </i>
   </dipole>
   <energy>
    <i name="e_fr_energy">   -290.55786326 </i>
    <i name="e_wo_entrp">   -289.77513204 </i>
    <i name="e_0_energy">   -290.16649765 </i>
   </energy>
  </scstep>
  <scstep>
   <time name="dav">    0.60    0.60</time>
   <time name="total">    1.55    1.56</time>
   <dipole>
    <v name="dipole">      0.00000000       0.00000000      -0.46182710 </v>
    <i name="Tr[quadrupol]">  -1826.79960602 </i>
    <i name="Echarged">      0.00000000 </i>
    <i name="Edipol_quadrupol">      0.00000000 </i>
    <i name="Eion">      0.00000000 </i>
   </dipole>
   <energy>
    <i name="e_fr_energy">   -289.81970207 </i>
    <i name="e_wo_entrp">   -289.21108256 </i>
    <i name="e_0_energy">   -289.51539232 </i>
   </energy>
  </scstep>
  <scstep>
   <time name="dav">    0.57    0.57</time>
   <time name="total">    1.52    1.53</time>
   <dipole>
    <v name="dipole">      0.00000000       0.00000000      -0.38207509 </v>
    <i name="Tr[quadrupol]">  -1827.81761711 </i>
    <i name="Echarged">      0.00000000 </i>
    <i name="Edipol_quadrupol">      0.00000000 </i>
    <i name="Eion">      0.00000000 </i>
   </dipole>
   <energy>
    <i name="e_fr_energy">   -289.89023519 </i>
    <i name="e_wo_entrp">   -289.50048926 </i>
    <i name="e_0_energy">   -289.69536223 </i>
   </energy>
  </scstep>
  <scstep>
   <time name="dav">    0.51    0.51</time>
   <time name="total">    1.46    1.48</time>
   <dipole>
    <v name="dipole">      0.00000000       0.00000000      -0.37830639 </v>
    <i name="Tr[quadrupol]">  -1829.81235488 </i>
    <i name="Echarged">      0.00000000 </i>
    <i name="Edipol_quadrupol">      0.00000000 </i>
    <i name="Eion">      0.00000000 </i>
   </dipole>
   <energy>
    <i name="e_fr_energy">   -290.63651904 </i>
    <i name="e_wo_entrp">   -290.04595273 </i>
    <i name="e_0_energy">   -290.34123588 </i>
   </energy>
  </scstep>
  <scstep>
   <time name="dav">    0.61    0.61</time>
   <time name="total">    1.57    1.58</time>
   <dipole>
    <v name="dipole">      0.00000000       0.00000000      -0.36395202 </v>
    <i name="Tr[quadrupol]">  -1830.70944556 </i>
    <i name="Echarged">      0.00000000 </i>
    <i name="Edipol_quadrupol">      0.00000000 </i>
    <i name="Eion">      0.00000000 </i>
   </dipole>
   <energy>
    <i name="e_fr_energy">   -289.41683669 </i>
    <i name="e_wo_entrp">   -288.62895383 </i>
    <i name="e_0_energy">   -289.02289526 </i>
   </energy>
  </scstep>
  <scstep>
   <time name="dav">    0.51    0.52</time>
   <time name="total">    1.47    1.48</time>
   <dipole>
    <v name="dipole">      0.00000000       0.00000000      -0.23873260 </v>
    <i name="Tr[quadrupol]">  -1832.11994765 </i>
    <i name="Echarged">      0.00000000 </i>
    <i name="Edipol_quadrupol">      0.00000000 </i>
    <i name="Eion">      0.00000000 </i>
   </dipole>
   <energy>
    <i name="e_fr_energy">   -291.02991731 </i>
    <i name="e_wo_entrp">   -290.44556120 </i>
    <i name="e_0_energy">   -290.73773926 </i>
   </energy>
  </scstep>
  <scstep>
   <time name="dav">    0.49    0.49</time>
   <time name="total">    1.43    1.44</time>
   <dipole>
    <v name="dipole">      0.00000000       0.00000000      -0.24795341 </v>
    <i name="Tr[quadrupol]">  -1834.08205750 </i>
    <i name="Echarged">      0.00000000 </i>
    <i name="Edipol_quadrupol">      0.00000000 </i>
    <i name="Eion">      0.00000000 </i>
   </dipole>
   <energy>
    <i name="alphaZ">    624.07575856 </i>
    <i name="ewald"> 141507.01658709 </i>
    <i name="hartreedc">-166689.19832848 </i>
    <i name="XCdc">   1249.33799104 </i>
    <i name="pawpsdc">  27980.96478818 </i>
    <i name="pawaedc"> -28424.72013325 </i>
    <i name="eentropy">     -0.42386988 </i>
    <i name="bandstr">  -4427.32883360 </i>
    <i name="atom">  27888.74374147 </i>
    <i name="e_fr_energy">   -291.53229887 </i>
    <i name="e_wo_entrp">   -291.10842899 </i>
    <i name="e_0_energy">   -291.32036393 </i>
   </energy>
  </scstep>
  <structure>
   <crystal>
    <varray name="basis" >
     <v>       5.53670000       0.00000000       0.00000000 </v>
     <v>       0.00000000       5.74730000       0.00000000 </v>
     <v>       0.00000000       0.00000000      29.09039264 </v>
    </varray>
    <i name="volume">    925.68759245 </i>
    <varray name="rec_basis" >
     <v>       0.18061300       0.00000000       0.00000000 </v>
     <v>       0.00000000       0.17399475       0.00000000 </v>
     <v>       0.00000000       0.00000000       0.03437561 </v>
    </varray>
   </crystal>
   <varray name="positions" >
    <v>       0.00000000       0.50000000       0.00343756 </v>
    <v>       0.50000000       0.00000000       0.00343756 </v>
    <v>       0.50000000       0.00000000       0.13566163 </v>
    <v>       0.00000000       0.50000000       0.13566163 </v>
    <v>       0.99967880       0.50197982       0.26864585 </v>
    <v>       0.50050804       0.00190609       0.26863050 </v>
    <v>       0.48551909       0.00331632       0.39938053 </v>
    <v>       0.01165972       0.50169676       0.40006381 </v>
    <v>       0.50780000       0.54900000       0.06954959 </v>
    <v>       0.99220000       0.04900000       0.06954959 </v>
    <v>       0.49220000       0.45100000       0.20177366 </v>
    <v>       0.00780000       0.95100000       0.20177366 </v>
    <v>       0.51274380       0.54585043       0.33595313 </v>
    <v>       0.98777167       0.04481736       0.33600657 </v>
    <v>       0.77440000       0.80660000       0.01359237 </v>
    <v>       0.72560000       0.30660000       0.01359237 </v>
    <v>       0.42550000       0.98740000       0.06954959 </v>
    <v>       0.07450000       0.48740000       0.06954959 </v>
    <v>       0.72560000       0.30660000       0.12550682 </v>
    <v>       0.77440000       0.80660000       0.12550682 </v>
    <v>       0.22560000       0.19340000       0.14581644 </v>
    <v>       0.27440000       0.69340000       0.14581644 </v>
    <v>       0.57450000       0.01260000       0.20177366 </v>
    <v>       0.92550000       0.51260000       0.20177366 </v>
    <v>       0.28268727       0.69948639       0.25786623 </v>
    <v>       0.21739481       0.19910220       0.25785980 </v>
    <v>       0.79040526       0.81231205       0.27788277 </v>
    <v>       0.70918136       0.31181780       0.27788437 </v>
    <v>       0.42964056       0.99233170       0.33391986 </v>
    <v>       0.07020709       0.49273537       0.33389560 </v>
    <v>       0.71500351       0.29963296       0.38810526 </v>
    <v>       0.78454078       0.80012367       0.38798757 </v>
    <v>       0.21281543       0.18524905       0.40981096 </v>
    <v>       0.29493136       0.68941729       0.40921280 </v>
    <v>       0.99869849       0.36960635       0.47298500 </v>
    <v>       0.99637964       0.62794959       0.45698415 </v>
   </varray>
  </structure>
  <varray name="forces" >
   <v>      -0.43775115       1.21788858       2.79772879 </v>
   <v>      -0.07617122       1.03976328       2.60530137 </v>
   <v>      -0.21729046      -0.32559739       1.18083224 </v>
   <v>       0.28911192      -0.21647638       0.90475379 </v>
   <v>       0.05734941      -0.39019737       2.05907475 </v>
   <v>       0.37159769      -0.09402645       1.83318334 </v>
   <v>      -1.69903941       0.88749006      -0.89665946 </v>
   <v>      -0.18022791       0.31705978       1.91101386 </v>
   <v>       2.14417167       1.14255702       0.59070800 </v>
   <v>      -1.85091833      -0.17117624       0.33903965 </v>
   <v>      -0.61674307       0.83980945       0.75601702 </v>
   <v>       0.55617935       0.86540110       0.92506565 </v>
   <v>       0.78514066      -0.04794294       1.45734681 </v>
   <v>      -0.78364247      -0.55707159       1.32797099 </v>
   <v>       4.55051477      -0.39966035       4.03076765 </v>
   <v>      -4.72194068      -0.42472610       4.10846540 </v>
   <v>      -0.56544963       0.35043138      -1.38654521 </v>
   <v>       0.62885581       0.46428034      -1.10974179 </v>
   <v>      -4.66227553      -0.49865625      -5.92318439 </v>
   <v>       4.42462985      -0.47469817      -5.88587162 </v>
   <v>      -5.92412664      -0.58129935       0.56543214 </v>
   <v>       5.82976428      -0.60781377       0.57359066 </v>
   <v>      -0.74932725      -3.12279885      -2.95019073 </v>
   <v>       0.42977499      -2.90952887      -2.86788908 </v>
   <v>       2.74598066       2.30646574      -2.31607515 </v>
   <v>      -3.50780480       1.38492173      -2.79981887 </v>
   <v>      -2.98157261       3.19218240       0.84913106 </v>
   <v>       2.57008326       1.77785436       0.41988261 </v>
   <v>      -1.21815562       5.30840075      -4.29803560 </v>
   <v>       1.09132817       5.38344724      -4.81114961 </v>
   <v>       0.91457917      -3.13756600       1.04920616 </v>
   <v>      -0.97762965      -1.62761369       0.72241621 </v>
   <v>       4.81531307      -5.45404344      -2.06333044 </v>
   <v>      -1.97347139      -2.28186345       2.26659065 </v>
   <v>       0.14630834      -1.02625848      -3.90518488 </v>
   <v>       0.79285476      -2.12893806       7.94015804 </v>
  </varray>
  <varray name="stress" >
   <v>     332.83345892       5.13936479      -5.41379005 </v>
   <v>       5.13934380     292.91276334       3.38280175 </v>
   <v>      -5.41384108       3.38273368     -27.47170921 </v>
  </varray>
  <energy>
   <i name="e_fr_energy">   -291.53229887 </i>
   <i name="e_wo_entrp">   -291.10842899 </i>
   <i name="e_0_energy">   -291.32036393 </i>
  </energy>
  <time name="totalsc">   47.18   47.46</time>
 </calculation>
 <calculation>
  <scstep>
   <time name="dav">    0.38    0.38</time>
   <time name="total">    1.34    1.34</time>
   <dipole>
    <v name="dipole">      0.00000000       0.00000000      -0.22886445 </v>
    <i name="Tr[quadrupol]">  -1837.50834840 </i>
    <i name="Echarged">      0.00000000 </i>
    <i name="Edipol_quadrupol">      0.00000000 </i>
    <i name="Eion">      0.00000000 </i>
   </dipole>
   <energy>
    <i name="alphaZ">    623.32635731 </i>
    <i name="ewald"> 141590.24457881 </i>
    <i name="hartreedc">-166800.78162068 </i>
    <i name="XCdc">   1249.84427198 </i>
    <i name="pawpsdc">  27998.02771677 </i>
    <i name="pawaedc"> -28442.20027145 </i>
    <i name="eentropy">     -0.42467038 </i>
    <i name="bandstr">  -4398.58473730 </i>
    <i name="atom">  27888.74374147 </i>
    <i name="e_fr_energy">   -291.80463347 </i>
    <i name="e_wo_entrp">   -291.37996309 </i>
    <i name="e_0_energy">   -291.59229828 </i>
   </energy>
  </scstep>
  <scstep>
   <time name="dav">    0.58    0.59</time>
   <time name="total">    1.54    1.55</time>
   <dipole>
    <v name="dipole">      0.00000000       0.00000000      -1.68516715 </v>
    <i name="Tr[quadrupol]">  -1840.79498841 </i>
    <i name="Echarged">      0.00000000 </i>
    <i name="Edipol_quadrupol">      0.00000000 </i>
    <i name="Eion">      0.00000000 </i>
   </dipole>
   <energy>
    <i name="e_fr_energy">   -392.76020126 </i>
    <i name="e_wo_entrp">   -392.48934851 </i>
    <i name="e_0_energy">   -392.62477488 </i>
   </energy>
  </scstep>
  <scstep>
   <time name="dav">    0.58    0.58</time>
   <time name="total">    1.53    1.54</time>
   <dipole>
    <v name="dipole">      0.00000000       0.00000000       4.36366380 </v>
    <i name="Tr[quadrupol]">  -1842.52871039 </i>
    <i name="Echarged">      0.00000000 </i>
    <i name="Edipol_quadrupol">      0.00000000 </i>
    <i name="Eion">      0.00000000 </i>
   </dipole>
   <energy>
    <i name="e_fr_energy">  -1029.29268856 </i>
    <i name="e_wo_entrp">  -1028.93117067 </i>
    <i name="e_0_energy">  -1029.11192961 </i>
   </energy>
  </scstep>
  <scstep>
   <time name="dav">    0.56    0.56</time>
   <time name="total">    1.52    1.52</time>
   <dipole>
    <v name="dipole">      0.00000000       0.00000000       0.23093104 </v>
    <i name="Tr[quadrupol]">  -1841.70440357 </i>
    <i name="Echarged">      0.00000000 </i>
    <i name="Edipol_quadrupol">      0.00000000 </i>
    <i name="Eion">      0.00000000 </i>
   </dipole>
   <energy>
    <i name="e_fr_energy">   -234.90963749 </i>
    <i name="e_wo_entrp">   -234.78111199 </i>
    <i name="e_0_energy">   -234.84537474 </i>
   </energy>
  </scstep>
  <scstep>
   <time name="dav">    0.62    0.62</time>
   <time name="total">    1.57    1.58</time>
   <dipole>
    <v name="dipole">      0.00000000       0.00000000      -0.21966408 </v>
    <i name="Tr[quadrupol]">  -1846.32495945 </i>
    <i name="Echarged">      0.00000000 </i>
    <i name="Edipol_quadrupol">      0.00000000 </i>
    <i name="Eion">      0.00000000 </i>
   </dipole>
   <energy>
    <i name="e_fr_energy">   -284.46302812 </i>
    <i name="e_wo_entrp">   -284.16207981 </i>
    <i name="e_0_energy">   -284.31255396 </i>
   </energy>
  </scstep>
  <scstep>
   <time name="dav">    0.51    0.52</time>
   <time name="total">    1.48    1.48</time>
   <dipole>
    <v name="dipole">      0.00000000       0.00000000      -0.90559657 </v>
    <i name="Tr[quadrupol]">  -1839.29452158 </i>
    <i name="Echarged">      0.00000000 </i>
    <i name="Edipol_quadrupol">      0.00000000 </i>
    <i name="Eion">      0.00000000 </i>
   </dipole>
   <energy>
    <i name="e_fr_energy">   -324.37253817 </i>
    <i name="e_wo_entrp">   -324.13944040 </i>
    <i name="e_0_energy">   -324.25598928 </i>
   </energy>
  </scstep>
  <scstep>
   <time name="dav">    0.53    0.53</time>
   <time name="total">    1.48    1.49</time>
   <dipole>
    <v name="dipole">      0.00000000       0.00000000      -0.42667730 </v>
    <i name="Tr[quadrupol]">  -1844.90378060 </i>
    <i name="Echarged">      0.00000000 </i>
    <i name="Edipol_quadrupol">      0.00000000 </i>
    <i name="Eion">      0.00000000 </i>
   </dipole>
   <energy>
    <i name="e_fr_energy">   -303.13176414 </i>
    <i name="e_wo_entrp">   -302.68311719 </i>
    <i name="e_0_energy">   -302.90744067 </i>
   </energy>
  </scstep>
  <scstep>
   <time name="dav">    0.53    0.53</time>
   <time name="total">    1.50    1.50</time>
   <dipole>
    <v name="dipole">      0.00000000       0.00000000      -0.19170544 </v>
    <i name="Tr[quadrupol]">  -1843.33359910 </i>
    <i name="Echarged">      0.00000000 </i>
    <i name="Edipol_quadrupol">      0.00000000 </i>
    <i name="Eion">      0.00000000 </i>
   </dipole>
   <energy>
    <i name="e_fr_energy">   -289.34912660 </i>
[...]
        <r>  0.0000  0.0030  0.0000  0.0000 </r>
        <r>  0.0004  0.0026  0.0000  0.0000 </r>
        <r>  0.0006  0.0014  0.0000  0.0000 </r>
        <r>  0.0000  0.0009  0.0000  0.0000 </r>
        <r>  0.0003  0.0010  0.0000  0.0000 </r>
        <r>  0.0000  0.0005  0.0000  0.0000 </r>
        <r>  0.0007  0.0004  0.0000  0.0000 </r>
        <r>  0.0000  0.0012  0.0000  0.0000 </r>
        <r>  0.0001  0.0003  0.0000  0.0000 </r>
        <r>  0.0001  0.0001  0.0000  0.0000 </r>
        <r>  0.0000  0.0003  0.0000  0.0000 </r>
        <r>  0.0000  0.0000  0.0000  0.0000 </r>
        <r>  0.0001  0.0003  0.0000  0.0000 </r>
        <r>  0.0000  0.0002  0.0000  0.0000 </r>
        <r>  0.0000  0.0000  0.0000  0.0000 </r>
        <r>  0.0000  0.0000  0.0000  0.0000 </r>
        <r>  0.0000  0.0000  0.0000  0.0000 </r>
        <r>  0.0000  0.0000  0.0000  0.0000 </r>
        <r>  0.0000  0.0000  0.0000  0.0000 </r>
        <r>  0.0000  0.0000  0.0000  0.0000 </r>
        <r>  0.0000  0.0000  0.0000  0.0000 </r>
       </set>
       <set comment="band 183">
        <r>  0.0002  0.0006  0.0065  0.0000 </r>
        <r>  0.0001  0.0018  0.0234  0.0000 </r>
        <r>  0.0005  0.0001  0.0133  0.0000 </r>
        <r>  0.0004  0.0001  0.0250  0.0000 </r>
        <r>  0.0000  0.0003  0.0013  0.0000 </r>
        <r>  0.0000  0.0004  0.0041  0.0000 </r>
        <r>  0.0003  0.0002  0.0031  0.0000 </r>
        <r>  0.0003  0.0000  0.0033  0.0000 </r>
        <r>  0.0000  0.0001  0.0119  0.2308 </r>
        <r>  0.0000  0.0002  0.0123  0.4134 </r>
        <r>  0.0001  0.0001  0.0026  0.0413 </r>
        <r>  0.0000  0.0001  0.0044  0.0869 </r>
        <r>  0.0000  0.0000  0.0009  0.0023 </r>
        <r>  0.0000  0.0000  0.0012  0.0032 </r>
        <r>  0.0000  0.0059  0.0000  0.0000 </r>
        <r>  0.0003  0.0041  0.0000  0.0000 </r>
        <r>  0.0000  0.0073  0.0000  0.0000 </r>
        <r>  0.0001  0.0048  0.0000  0.0000 </r>
        <r>  0.0002  0.0006  0.0000  0.0000 </r>
        <r>  0.0001  0.0006  0.0000  0.0000 </r>
        <r>  0.0000  0.0028  0.0000  0.0000 </r>
        <r>  0.0002  0.0007  0.0000  0.0000 </r>
        <r>  0.0003  0.0001  0.0000  0.0000 </r>
        <r>  0.0004  0.0001  0.0000  0.0000 </r>
        <r>  0.0000  0.0004  0.0000  0.0000 </r>
        <r>  0.0000  0.0002  0.0000  0.0000 </r>
        <r>  0.0001  0.0006  0.0000  0.0000 </r>
        <r>  0.0001  0.0002  0.0000  0.0000 </r>
        <r>  0.0001  0.0006  0.0000  0.0000 </r>
        <r>  0.0000  0.0005  0.0000  0.0000 </r>
        <r>  0.0000  0.0001  0.0000  0.0000 </r>
        <r>  0.0000  0.0001  0.0000  0.0000 </r>
        <r>  0.0000  0.0002  0.0000  0.0000 </r>
        <r>  0.0000  0.0003  0.0000  0.0000 </r>
        <r>  0.0000  0.0001  0.0000  0.0000 </r>
        <r>  0.0000  0.0006  0.0000  0.0000 </r>
       </set>
       <set comment="band 184">
        <r>  0.0003  0.0001  0.0011  0.0000 </r>
        <r>  0.0004  0.0004  0.0104  0.0000 </r>
        <r>  0.0011  0.0001  0.0092  0.0000 </r>
        <r>  0.0001  0.0000  0.0106  0.0000 </r>
        <r>  0.0000  0.0000  0.0011  0.0000 </r>
        <r>  0.0000  0.0001  0.0008  0.0000 </r>
        <r>  0.0000  0.0000  0.0002  0.0000 </r>
        <r>  0.0000  0.0000  0.0003  0.0000 </r>
        <r>  0.0000  0.0001  0.0053  0.1509 </r>
        <r>  0.0001  0.0000  0.0054  0.3485 </r>
        <r>  0.0002  0.0001  0.0065  0.1891 </r>
        <r>  0.0001  0.0001  0.0061  0.1669 </r>
        <r>  0.0000  0.0000  0.0008  0.0045 </r>
        <r>  0.0000  0.0000  0.0007  0.0045 </r>
        <r>  0.0000  0.0024  0.0000  0.0000 </r>
        <r>  0.0001  0.0015  0.0000  0.0000 </r>
        <r>  0.0006  0.0010  0.0000  0.0000 </r>
        <r>  0.0000  0.0035  0.0000  0.0000 </r>
        <r>  0.0000  0.0004  0.0000  0.0000 </r>
        <r>  0.0002  0.0020  0.0000  0.0000 </r>
        <r>  0.0000  0.0029  0.0000  0.0000 </r>
        <r>  0.0003  0.0019  0.0000  0.0000 </r>
        <r>  0.0002  0.0008  0.0000  0.0000 </r>
        <r>  0.0001  0.0014  0.0000  0.0000 </r>
        <r>  0.0000  0.0004  0.0000  0.0000 </r>
        <r>  0.0000  0.0002  0.0000  0.0000 </r>
        <r>  0.0000  0.0003  0.0000  0.0000 </r>
        <r>  0.0000  0.0003  0.0000  0.0000 </r>
        <r>  0.0000  0.0002  0.0000  0.0000 </r>
        <r>  0.0000  0.0002  0.0000  0.0000 </r>
        <r>  0.0000  0.0001  0.0000  0.0000 </r>
        <r>  0.0000  0.0001  0.0000  0.0000 </r>
        <r>  0.0000  0.0000  0.0000  0.0000 </r>
        <r>  0.0000  0.0000  0.0000  0.0000 </r>
        <r>  0.0000  0.0000  0.0000  0.0000 </r>
        <r>  0.0000  0.0000  0.0000  0.0000 </r>
       </set>
       <set comment="band 185">
        <r>  0.0003  0.0002  0.0035  0.0000 </r>
        <r>  0.0001  0.0005  0.0211  0.0000 </r>
        <r>  0.0010  0.0000  0.0041  0.0000 </r>
        <r>  0.0006  0.0002  0.0213  0.0000 </r>
        <r>  0.0000  0.0000  0.0021  0.0000 </r>
        <r>  0.0000  0.0001  0.0017  0.0000 </r>
        <r>  0.0000  0.0001  0.0009  0.0000 </r>
        <r>  0.0000  0.0000  0.0003  0.0000 </r>
        <r>  0.0000  0.0001  0.0045  0.3039 </r>
        <r>  0.0002  0.0000  0.0092  0.4406 </r>
        <r>  0.0001  0.0000  0.0033  0.0665 </r>
        <r>  0.0002  0.0000  0.0031  0.0359 </r>
        <r>  0.0000  0.0000  0.0002  0.0012 </r>
        <r>  0.0000  0.0000  0.0002  0.0011 </r>
        <r>  0.0003  0.0081  0.0000  0.0000 </r>
        <r>  0.0000  0.0005  0.0000  0.0000 </r>
        <r>  0.0013  0.0013  0.0000  0.0000 </r>
        <r>  0.0000  0.0059  0.0000  0.0000 </r>
        <r>  0.0000  0.0020  0.0000  0.0000 </r>
        <r>  0.0004  0.0027  0.0000  0.0000 </r>
        <r>  0.0002  0.0028  0.0000  0.0000 </r>
        <r>  0.0000  0.0015  0.0000  0.0000 </r>
        <r>  0.0007  0.0005  0.0000  0.0000 </r>
        <r>  0.0000  0.0001  0.0000  0.0000 </r>
        <r>  0.0000  0.0001  0.0000  0.0000 </r>
        <r>  0.0000  0.0003  0.0000  0.0000 </r>
        <r>  0.0000  0.0000  0.0000  0.0000 </r>
        <r>  0.0000  0.0002  0.0000  0.0000 </r>
        <r>  0.0000  0.0003  0.0000  0.0000 </r>
        <r>  0.0000  0.0000  0.0000  0.0000 </r>
        <r>  0.0000  0.0000  0.0000  0.0000 </r>
        <r>  0.0000  0.0000  0.0000  0.0000 </r>
        <r>  0.0000  0.0000  0.0000  0.0000 </r>
        <r>  0.0000  0.0001  0.0000  0.0000 </r>
        <r>  0.0000  0.0000  0.0000  0.0000 </r>
        <r>  0.0000  0.0001  0.0000  0.0000 </r>
       </set>
       <set comment="band 186">
        <r>  0.0005  0.0010  0.0004  0.0000 </r>
        <r>  0.0006  0.0005  0.0043  0.0000 </r>
        <r>  0.0001  0.0003  0.0073  0.0000 </r>
        <r>  0.0000  0.0001  0.0212  0.0000 </r>
        <r>  0.0000  0.0001  0.0054  0.0000 </r>
        <r>  0.0000  0.0001  0.0011  0.0000 </r>
        <r>  0.0001  0.0001  0.0008  0.0000 </r>
        <r>  0.0000  0.0000  0.0006  0.0000 </r>
        <r>  0.0001  0.0000  0.0116  0.2723 </r>
        <r>  0.0000  0.0000  0.0049  0.1264 </r>
        <r>  0.0001  0.0000  0.0028  0.2096 </r>
        <r>  0.0000  0.0000  0.0017  0.2537 </r>
        <r>  0.0000  0.0000  0.0002  0.0019 </r>
        <r>  0.0000  0.0000  0.0005  0.0037 </r>
        <r>  0.0000  0.0014  0.0000  0.0000 </r>
        <r>  0.0001  0.0016  0.0000  0.0000 </r>
        <r>  0.0001  0.0027  0.0000  0.0000 </r>
        <r>  0.0006  0.0029  0.0000  0.0000 </r>
        <r>  0.0000  0.0002  0.0000  0.0000 </r>
        <r>  0.0004  0.0017  0.0000  0.0000 </r>
        <r>  0.0001  0.0023  0.0000  0.0000 </r>
        <r>  0.0000  0.0004  0.0000  0.0000 </r>
        <r>  0.0001  0.0010  0.0000  0.0000 </r>
        <r>  0.0000  0.0017  0.0000  0.0000 </r>
        <r>  0.0000  0.0005  0.0000  0.0000 </r>
        <r>  0.0000  0.0005  0.0000  0.0000 </r>
        <r>  0.0000  0.0002  0.0000  0.0000 </r>
        <r>  0.0000  0.0003  0.0000  0.0000 </r>
        <r>  0.0000  0.0003  0.0000  0.0000 </r>
        <r>  0.0000  0.0002  0.0000  0.0000 </r>
        <r>  0.0000  0.0001  0.0000  0.0000 </r>
        <r>  0.0000  0.0001  0.0000  0.0000 </r>
        <r>  0.0000  0.0001  0.0000  0.0000 </r>
        <r>  0.0000  0.0001  0.0000  0.0000 </r>
        <r>  0.0000  0.0000  0.0000  0.0000 </r>
        <r>  0.0000  0.0001  0.0000  0.0000 </r>
       </set>
       <set comment="band 187">
        <r>  0.0000  0.0005  0.0015  0.0000 </r>
        <r>  0.0000  0.0004  0.0234  0.0000 </r>
        <r>  0.0000  0.0001  0.0032  0.0000 </r>
        <r>  0.0001  0.0000  0.0108  0.0000 </r>
        <r>  0.0000  0.0002  0.0067  0.0000 </r>
        <r>  0.0000  0.0002  0.0024  0.0000 </r>
        <r>  0.0000  0.0000  0.0003  0.0000 </r>
        <r>  0.0001  0.0000  0.0004  0.0000 </r>
        <r>  0.0001  0.0001  0.0079  0.2681 </r>
        <r>  0.0000  0.0000  0.0040  0.2832 </r>
        <r>  0.0000  0.0000  0.0040  0.1636 </r>
        <r>  0.0001  0.0000  0.0031  0.1255 </r>
        <r>  0.0000  0.0000  0.0025  0.0080 </r>
        <r>  0.0000  0.0000  0.0019  0.0073 </r>
        <r>  0.0000  0.0005  0.0000  0.0000 </r>
        <r>  0.0000  0.0020  0.0000  0.0000 </r>
        <r>  0.0000  0.0066  0.0000  0.0000 </r>
        <r>  0.0003  0.0041  0.0000  0.0000 </r>
        <r>  0.0001  0.0029  0.0000  0.0000 </r>
        <r>  0.0000  0.0007  0.0000  0.0000 </r>
        <r>  0.0000  0.0003  0.0000  0.0000 </r>
        <r>  0.0000  0.0011  0.0000  0.0000 </r>
        <r>  0.0000  0.0015  0.0000  0.0000 </r>
        <r>  0.0005  0.0026  0.0000  0.0000 </r>
        <r>  0.0000  0.0001  0.0000  0.0000 </r>
        <r>  0.0001  0.0015  0.0000  0.0000 </r>
        <r>  0.0000  0.0003  0.0000  0.0000 </r>
        <r>  0.0001  0.0001  0.0000  0.0000 </r>
        <r>  0.0002  0.0001  0.0000  0.0000 </r>
        <r>  0.0000  0.0001  0.0000  0.0000 </r>
        <r>  0.0000  0.0001  0.0000  0.0000 </r>
        <r>  0.0000  0.0000  0.0000  0.0000 </r>
        <r>  0.0000  0.0002  0.0000  0.0000 </r>
        <r>  0.0000  0.0001  0.0000  0.0000 </r>
        <r>  0.0000  0.0000  0.0000  0.0000 </r>
        <r>  0.0000  0.0001  0.0000  0.0000 </r>
       </set>
       <set comment="band 188">
        <r>  0.0001  0.0003  0.0003  0.0000 </r>
        <r>  0.0001  0.0001  0.0035  0.0000 </r>
        <r>  0.0001  0.0001  0.0026  0.0000 </r>
        <r>  0.0001  0.0003  0.0119  0.0000 </r>
        <r>  0.0003  0.0002  0.0036  0.0000 </r>
        <r>  0.0003  0.0001  0.0084  0.0000 </r>
        <r>  0.0001  0.0000  0.0007  0.0000 </r>
        <r>  0.0002  0.0000  0.0005  0.0000 </r>
        <r>  0.0000  0.0000  0.0012  0.0743 </r>
        <r>  0.0000  0.0001  0.0051  0.0430 </r>
        <r>  0.0000  0.0002  0.0125  0.5382 </r>
        <r>  0.0001  0.0001  0.0019  0.2086 </r>
        <r>  0.0000  0.0000  0.0023  0.0082 </r>
        <r>  0.0000  0.0001  0.0025  0.0071 </r>
        <r>  0.0000  0.0003  0.0000  0.0000 </r>
        <r>  0.0000  0.0005  0.0000  0.0000 </r>
        <r>  0.0000  0.0009  0.0000  0.0000 </r>
        <r>  0.0001  0.0006  0.0000  0.0000 </r>
        <r>  0.0001  0.0008  0.0000  0.0000 </r>
        <r>  0.0009  0.0001  0.0000  0.0000 </r>
        <r>  0.0000  0.0010  0.0000  0.0000 </r>
        <r>  0.0000  0.0004  0.0000  0.0000 </r>
        <r>  0.0001  0.0006  0.0000  0.0000 </r>
        <r>  0.0000  0.0004  0.0000  0.0000 </r>
        <r>  0.0000  0.0009  0.0000  0.0000 </r>
        <r>  0.0001  0.0005  0.0000  0.0000 </r>
        <r>  0.0009  0.0007  0.0000  0.0000 </r>
        <r>  0.0000  0.0002  0.0000  0.0000 </r>
        <r>  0.0001  0.0002  0.0000  0.0000 </r>
        <r>  0.0001  0.0008  0.0000  0.0000 </r>
        <r>  0.0000  0.0002  0.0000  0.0000 </r>
        <r>  0.0000  0.0002  0.0000  0.0000 </r>
        <r>  0.0000  0.0001  0.0000  0.0000 </r>
        <r>  0.0000  0.0001  0.0000  0.0000 </r>
        <r>  0.0000  0.0000  0.0000  0.0000 </r>
        <r>  0.0000  0.0000  0.0000  0.0000 </r>
       </set>
       <set comment="band 189">
        <r>  0.0009  0.0001  0.0021  0.0000 </r>
        <r>  0.0001  0.0008  0.0294  0.0000 </r>
        <r>  0.0015  0.0001  0.0015  0.0000 </r>
        <r>  0.0003  0.0001  0.0069  0.0000 </r>
        <r>  0.0005  0.0001  0.0112  0.0000 </r>
        <r>  0.0007  0.0002  0.0144  0.0000 </r>
        <r>  0.0000  0.0004  0.0060  0.0000 </r>
        <r>  0.0000  0.0001  0.0011  0.0000 </r>
        <r>  0.0000  0.0003  0.0031  0.0887 </r>
        <r>  0.0001  0.0000  0.0039  0.0355 </r>
        <r>  0.0003  0.0003  0.0025  0.2920 </r>
        <r>  0.0001  0.0006  0.0087  0.3685 </r>
        <r>  0.0000  0.0001  0.0034  0.0080 </r>
        <r>  0.0000  0.0000  0.0029  0.0150 </r>
        <r>  0.0000  0.0032  0.0000  0.0000 </r>
        <r>  0.0002  0.0025  0.0000  0.0000 </r>
        <r>  0.0001  0.0013  0.0000  0.0000 </r>
        <r>  0.0002  0.0001  0.0000  0.0000 </r>
        <r>  0.0010  0.0013  0.0000  0.0000 </r>
        <r>  0.0001  0.0016  0.0000  0.0000 </r>
        <r>  0.0000  0.0036  0.0000  0.0000 </r>
        <r>  0.0000  0.0001  0.0000  0.0000 </r>
        <r>  0.0006  0.0015  0.0000  0.0000 </r>
        <r>  0.0001  0.0017  0.0000  0.0000 </r>
        <r>  0.0005  0.0018  0.0000  0.0000 </r>
        <r>  0.0002  0.0016  0.0000  0.0000 </r>
        <r>  0.0000  0.0005  0.0000  0.0000 </r>
        <r>  0.0006  0.0014  0.0000  0.0000 </r>
        <r>  0.0001  0.0029  0.0000  0.0000 </r>
        <r>  0.0004  0.0003  0.0000  0.0000 </r>
        <r>  0.0000  0.0005  0.0000  0.0000 </r>
        <r>  0.0000  0.0006  0.0000  0.0000 </r>
        <r>  0.0000  0.0002  0.0000  0.0000 </r>
        <r>  0.0000  0.0002  0.0000  0.0000 </r>
        <r>  0.0000  0.0000  0.0000  0.0000 </r>
        <r>  0.0000  0.0003  0.0000  0.0000 </r>
       </set>
       <set comment="band 190">
        <r>  0.0000  0.0001  0.0001  0.0000 </r>
        <r>  0.0000  0.0001  0.0035  0.0000 </r>
        <r>  0.0003  0.0002  0.0032  0.0000 </r>
        <r>  0.0007  0.0002  0.0285  0.0000 </r>
        <r>  0.0011  0.0002  0.0328  0.0000 </r>
        <r>  0.0012  0.0004  0.0249  0.0000 </r>
        <r>  0.0003  0.0000  0.0012  0.0000 </r>
        <r>  0.0011  0.0000  0.0030  0.0000 </r>
        <r>  0.0000  0.0000  0.0012  0.0222 </r>
        <r>  0.0000  0.0001  0.0006  0.0598 </r>
        <r>  0.0001  0.0004  0.0113  0.2073 </r>
        <r>  0.0001  0.0003  0.0122  0.4528 </r>
        <r>  0.0000  0.0001  0.0056  0.0137 </r>
        <r>  0.0000  0.0002  0.0048  0.0067 </r>
        <r>  0.0000  0.0009  0.0000  0.0000 </r>
        <r>  0.0000  0.0001  0.0000  0.0000 </r>
        <r>  0.0000  0.0002  0.0000  0.0000 </r>
        <r>  0.0000  0.0002  0.0000  0.0000 </r>
        <r>  0.0000  0.0006  0.0000  0.0000 </r>
        <r>  0.0002  0.0022  0.0000  0.0000 </r>
        <r>  0.0001  0.0005  0.0000  0.0000 </r>
        <r>  0.0001  0.0022  0.0000  0.0000 </r>
        <r>  0.0002  0.0061  0.0000  0.0000 </r>
        <r>  0.0008  0.0039  0.0000  0.0000 </r>
        <r>  0.0010  0.0060  0.0000  0.0000 </r>
        <r>  0.0012  0.0026  0.0000  0.0000 </r>
        <r>  0.0005  0.0024  0.0000  0.0000 </r>
        <r>  0.0000  0.0007  0.0000  0.0000 </r>
        <r>  0.0003  0.0006  0.0000  0.0000 </r>
        <r>  0.0004  0.0029  0.0000  0.0000 </r>
        <r>  0.0000  0.0002  0.0000  0.0000 </r>
        <r>  0.0000  0.0006  0.0000  0.0000 </r>
        <r>  0.0000  0.0004  0.0000  0.0000 </r>
        <r>  0.0001  0.0006  0.0000  0.0000 </r>
        <r>  0.0000  0.0001  0.0000  0.0000 </r>
        <r>  0.0000  0.0003  0.0000  0.0000 </r>
       </set>
      </set>
     </set>
    </set>
   </array>
  </projected>
 </calculation>
 <structure name="finalpos" >
  <crystal>
   <varray name="basis" >
    <v>       5.53670000       0.00000000       0.00000000 </v>
    <v>       0.00000000       5.74730000       0.00000000 </v>
    <v>       0.00000000       0.00000000      29.09039264 </v>
   </varray>
   <i name="volume">    925.68759245 </i>
   <varray name="rec_basis" >
    <v>       0.18061300       0.00000000       0.00000000 </v>
    <v>       0.00000000       0.17399475       0.00000000 </v>
    <v>       0.00000000       0.00000000       0.03437561 </v>
   </varray>
  </crystal>
  <varray name="positions" >
   <v>       0.00000000       0.50000000       0.00343756 </v>
   <v>       0.50000000       0.00000000       0.00343756 </v>
   <v>       0.50000000       0.00000000       0.13566163 </v>
   <v>       0.00000000       0.50000000       0.13566163 </v>
   <v>       0.99981156       0.50017092       0.26915142 </v>
   <v>       0.50024506       0.00014858       0.26914677 </v>
   <v>       0.48822102       0.00320391       0.39985724 </v>
   <v>       0.01092402       0.50271311       0.40006431 </v>
   <v>       0.50780000       0.54900000       0.06954959 </v>
   <v>       0.99220000       0.04900000       0.06954959 </v>
   <v>       0.49220000       0.45100000       0.20177366 </v>
   <v>       0.00780000       0.95100000       0.20177366 </v>
   <v>       0.51053452       0.54467678       0.33585851 </v>
   <v>       0.98962169       0.04436371       0.33587471 </v>
   <v>       0.77440000       0.80660000       0.01359237 </v>
   <v>       0.72560000       0.30660000       0.01359237 </v>
   <v>       0.42550000       0.98740000       0.06954959 </v>
   <v>       0.07450000       0.48740000       0.06954959 </v>
   <v>       0.72560000       0.30660000       0.12550682 </v>
   <v>       0.77440000       0.80660000       0.12550682 </v>
   <v>       0.22560000       0.19340000       0.14581644 </v>
   <v>       0.27440000       0.69340000       0.14581644 </v>
   <v>       0.57450000       0.01260000       0.20177366 </v>
   <v>       0.92550000       0.51260000       0.20177366 </v>
   <v>       0.28688158       0.69729432       0.25666565 </v>
   <v>       0.21314330       0.19717789       0.25666370 </v>
   <v>       0.79155021       0.80918036       0.27763425 </v>
   <v>       0.70832452       0.30903058       0.27763474 </v>
   <v>       0.42978192       0.00016510       0.33344954 </v>
   <v>       0.07017191       0.50028743       0.33344219 </v>
   <v>       0.71784931       0.30078591       0.38785257 </v>
   <v>       0.78201259       0.80093462       0.38781691 </v>
   <v>       0.21321907       0.19015436       0.40879186 </v>
   <v>       0.28912857       0.69141753       0.40861060 </v>
   <v>       0.99960558       0.38949445       0.47106130 </v>
   <v>       0.99890286       0.60976488       0.45600270 </v>
  </varray>
  <varray name="selective"  type="logical" >
   <v type="logical" >  F  F  F </v>
   <v type="logical" >  F  F  F </v>
   <v type="logical" >  F  F  F </v>
   <v type="logical" >  F  F  F </v>
   <v type="logical" >  T  T  T </v>
   <v type="logical" >  T  T  T </v>
   <v type="logical" >  T  T  T </v>
   <v type="logical" >  T  T  T </v>
   <v type="logical" >  F  F  F </v>
   <v type="logical" >  F  F  F </v>
   <v type="logical" >  F  F  F </v>
   <v type="logical" >  F  F  F </v>
   <v type="logical" >  T  T  T </v>
   <v type="logical" >  T  T  T </v>
   <v type="logical" >  F  F  F </v>
   <v type="logical" >  F  F  F </v>
   <v type="logical" >  F  F  F </v>
   <v type="logical" >  F  F  F </v>
   <v type="logical" >  F  F  F </v>
   <v type="logical" >  F  F  F </v>
   <v type="logical" >  F  F  F </v>
   <v type="logical" >  F  F  F </v>
   <v type="logical" >  F  F  F </v>
   <v type="logical" >  F  F  F </v>
   <v type="logical" >  T  T  T </v>
   <v type="logical" >  T  T  T </v>
   <v type="logical" >  T  T  T </v>
   <v type="logical" >  T  T  T </v>
   <v type="logical" >  T  T  T </v>
   <v type="logical" >  T  T  T </v>
   <v type="logical" >  T  T  T </v>
   <v type="logical" >  T  T  T </v>
   <v type="logical" >  T  T  T </v>
   <v type="logical" >  T  T  T </v>
   <v type="logical" >  T  T  T </v>
   <v type="logical" >  T  T  T </v>
  </varray>
  <nose>
   <v>      -3.00000000       0.00000000       0.00010000       0.00010000 </v>
  </nose>
 </structure>
</modeling>
