unknown system                          
           1
     5.536700    0.000000    0.000000
     0.000000    5.747300    0.000000
     0.000000    0.000000   29.090393
   Cr   La   O 
     8     6    22
Direct configuration=     1
   0.00000000  0.50000000  0.00343756
   0.50000000  0.00000000  0.00343756
   0.50000000  0.00000000  0.13566163
   0.00000000  0.50000000  0.13566163
   0.99986929  0.49938438  0.26937126
   0.50013071  0.99938438  0.26937126
   0.48939587  0.00315503  0.40006453
   0.01060413  0.50315503  0.40006453
   0.50780000  0.54900000  0.06954959
   0.99220000  0.04900000  0.06954959
   0.49220000  0.45100000  0.20177366
   0.00780000  0.95100000  0.20177366
   0.50957389  0.54416646  0.33581737
   0.99042611  0.04416646  0.33581737
   0.77440000  0.80660000  0.01359237
   0.72560000  0.30660000  0.01359237
   0.42550000  0.98740000  0.06954959
   0.07450000  0.48740000  0.06954959
   0.72560000  0.30660000  0.12550682
   0.77440000  0.80660000  0.12550682
   0.22560000  0.19340000  0.14581644
   0.27440000  0.69340000  0.14581644
   0.57450000  0.01260000  0.20177366
   0.92550000  0.51260000  0.20177366
   0.28870533  0.69634117  0.25614362
   0.21129467  0.19634117  0.25614362
   0.79204805  0.80781865  0.27752619
   0.70795195  0.30781865  0.27752619
   0.42984338  0.00357119  0.33324504
   0.07015662  0.50357119  0.33324504
   0.71908670  0.30128723  0.38774270
   0.78091330  0.80128723  0.38774270
   0.21339458  0.19228727  0.40834875
   0.28660542  0.69228727  0.40834875
   0.00000000  0.39814211  0.47022484
   0.00000000  0.60185789  0.45557595
Direct configuration=     2
   0.00000000  0.50000000  0.00343756
   0.50000000  0.00000000  0.00343756
   0.50000000  0.00000000  0.13566163
   0.00000000  0.50000000  0.13566163
   0.99967880  0.50197982  0.26864585
   0.50050804  0.00190609  0.26863050
   0.48551909  0.00331632  0.39938053
   0.01165972  0.50169676  0.40006381
   0.50780000  0.54900000  0.06954959
   0.99220000  0.04900000  0.06954959
   0.49220000  0.45100000  0.20177366
   0.00780000  0.95100000  0.20177366
   0.51274380  0.54585043  0.33595313
   0.98777167  0.04481736  0.33600657
   0.77440000  0.80660000  0.01359237
   0.72560000  0.30660000  0.01359237
   0.42550000  0.98740000  0.06954959
   0.07450000  0.48740000  0.06954959
   0.72560000  0.30660000  0.12550682
   0.77440000  0.80660000  0.12550682
   0.22560000  0.19340000  0.14581644
   0.27440000  0.69340000  0.14581644
   0.57450000  0.01260000  0.20177366
   0.92550000  0.51260000  0.20177366
   0.28268727  0.69948639  0.25786623
   0.21739481  0.19910220  0.25785980
   0.79040526  0.81231205  0.27788277
   0.70918136  0.31181780  0.27788437
   0.42964056  0.99233170  0.33391986
   0.07020709  0.49273537  0.33389560
   0.71500351  0.29963296  0.38810526
   0.78454078  0.80012367  0.38798757
   0.21281543  0.18524905  0.40981096
   0.29493136  0.68941729  0.40921280
   0.99869849  0.36960635  0.47298500
   0.99637964  0.62794959  0.45698415
Direct configuration=     3
   0.00000000  0.50000000  0.00343756
   0.50000000  0.00000000  0.00343756
   0.50000000  0.00000000  0.13566163
   0.00000000  0.50000000  0.13566163
   0.99970817  0.50157958  0.26875771
   0.50044985  0.00151722  0.26874473
   0.48611693  0.00329145  0.39948601
   0.01149693  0.50192164  0.40006392
   0.50780000  0.54900000  0.06954959
   0.99220000  0.04900000  0.06954959
   0.49220000  0.45100000  0.20177366
   0.00780000  0.95100000  0.20177366
   0.51225497  0.54559075  0.33593219
   0.98818101  0.04471698  0.33597739
   0.77440000  0.80660000  0.01359237
   0.72560000  0.30660000  0.01359237
   0.42550000  0.98740000  0.06954959
   0.07450000  0.48740000  0.06954959
   0.72560000  0.30660000  0.12550682
   0.77440000  0.80660000  0.12550682
   0.22560000  0.19340000  0.14581644
   0.27440000  0.69340000  0.14581644
   0.57450000  0.01260000  0.20177366
   0.92550000  0.51260000  0.20177366
   0.28361532  0.69900137  0.25760058
   0.21645410  0.19867642  0.25759515
   0.79065859  0.81161912  0.27782779
   0.70899178  0.31120109  0.27782913
   0.42967184  0.99406495  0.33381580
   0.07019930  0.49440636  0.33379528
   0.71563318  0.29988807  0.38804935
   0.78398138  0.80030310  0.38794981
   0.21290474  0.18633442  0.40958547
   0.29364741  0.68985987  0.40907956
   0.99889919  0.37400686  0.47255935
   0.99693793  0.62392597  0.45676699
Direct configuration=     4
   0.00000000  0.50000000  0.00343756
   0.50000000  0.00000000  0.00343756
   0.50000000  0.00000000  0.13566163
   0.00000000  0.50000000  0.13566163
   0.99975383  0.50095746  0.26893159
   0.50035941  0.00091277  0.26892229
   0.48704618  0.00325279  0.39964996
   0.01124391  0.50227118  0.40006409
   0.50780000  0.54900000  0.06954959
   0.99220000  0.04900000  0.06954959
   0.49220000  0.45100000  0.20177366
   0.00780000  0.95100000  0.20177366
   0.51149515  0.54518710  0.33589965
   0.98881727  0.04456096  0.33593204
   0.77440000  0.80660000  0.01359237
   0.72560000  0.30660000  0.01359237
   0.42550000  0.98740000  0.06954959
   0.07450000  0.48740000  0.06954959
   0.72560000  0.30660000  0.12550682
   0.77440000  0.80660000  0.12550682
   0.22560000  0.19340000  0.14581644
   0.27440000  0.69340000  0.14581644
   0.57450000  0.01260000  0.20177366
   0.92550000  0.51260000  0.20177366
   0.28505783  0.69824747  0.25718768
   0.21499192  0.19801461  0.25718379
   0.79105236  0.81054207  0.27774231
   0.70869709  0.31024251  0.27774328
   0.42972045  0.99675902  0.33365405
   0.07018721  0.49700367  0.33363934
   0.71661191  0.30028459  0.38796244
   0.78311189  0.80058200  0.38789111
   0.21304356  0.18802145  0.40923498
   0.29165171  0.69054779  0.40887244
   0.99921116  0.38084679  0.47189775
   0.99780572  0.61767188  0.45642945
Direct configuration=     5
   0.00000000  0.50000000  0.00343756
   0.50000000  0.00000000  0.00343756
   0.50000000  0.00000000  0.13566163
   0.00000000  0.50000000  0.13566163
   0.99981156  0.50017092  0.26915142
   0.50024506  0.00014858  0.26914677
   0.48822102  0.00320391  0.39985724
   0.01092402  0.50271311  0.40006431
   0.50780000  0.54900000  0.06954959
   0.99220000  0.04900000  0.06954959
   0.49220000  0.45100000  0.20177366
   0.00780000  0.95100000  0.20177366
   0.51053452  0.54467678  0.33585851
   0.98962169  0.04436371  0.33587471
   0.77440000  0.80660000  0.01359237
   0.72560000  0.30660000  0.01359237
   0.42550000  0.98740000  0.06954959
   0.07450000  0.48740000  0.06954959
   0.72560000  0.30660000  0.12550682
   0.77440000  0.80660000  0.12550682
   0.22560000  0.19340000  0.14581644
   0.27440000  0.69340000  0.14581644
   0.57450000  0.01260000  0.20177366
   0.92550000  0.51260000  0.20177366
   0.28688158  0.69729432  0.25666565
   0.21314330  0.19717789  0.25666370
   0.79155021  0.80918036  0.27763425
   0.70832452  0.30903058  0.27763474
   0.42978192  0.00016510  0.33344954
   0.07017191  0.50028743  0.33344219
   0.71784931  0.30078591  0.38785257
   0.78201259  0.80093462  0.38781691
   0.21321907  0.19015436  0.40879186
   0.28912857  0.69141753  0.40861060
   0.99960558  0.38949445  0.47106130
   0.99890286  0.60976488  0.45600270
