101
Lattice="13.791603039053763 -1.1704809832993197e-07 6.703336656169091e-07 6.895801418160254 11.94387930607876 1.6811462701697e-06 0.0 0.0 37.15135978955718" Properties=species:S:1:pos:R:3:tags:I:1:initial_magmoms:R:1:forces:R:3 energy=-584.8267822265625 free_energy=-584.8267822265625 stress="0.008430159482863733 5.455871076312449e-08 3.870444501943625e-07 5.455871076312449e-08 0.00843157019383064 -5.762521901733868e-05 3.870444501943625e-07 -5.762521901733868e-05 0.0012969994598675926" pbc="T T T"
Pt       0.00000004       0.00000003       0.00000000        0       0.00000000      -0.00430018      -0.00098300       0.14678547
Pt       2.75832052       0.00000002       0.00000029        0       0.00000000       0.00427778      -0.00098052       0.14679989
Pt       5.51664114      -0.00000007       0.00000030        0       0.00000000       0.00314904      -0.00352746       0.12642610
Pt       8.27496177      -0.00000001       0.00000044        0       0.00000000      -0.00001411       0.00095392       0.13076910
Pt      11.03328250      -0.00000006       0.00000064        0       0.00000000      -0.00316992      -0.00351743       0.12644228
Pt       1.37916020       2.38877583       0.00000036        0       0.00000000      -0.00000616       0.00622216       0.14703417
Pt       4.13748100       2.38877577       0.00000041        0       0.00000000      -0.00064851       0.00098001       0.13092130
Pt       6.89580149       2.38877583       0.00000074        0       0.00000000      -0.00209125       0.00076808       0.13354957
Pt       9.65412211       2.38877585       0.00000086        0       0.00000000       0.00206447       0.00077407       0.13356072
Pt      12.41244274       2.38877574       0.00000096        0       0.00000000       0.00062113       0.00097847       0.13092536
Pt       2.75832046       4.77755174       0.00000071        0       0.00000000      -0.00273921       0.00647165       0.12612882
Pt       5.51664125       4.77755168       0.00000096        0       0.00000000      -0.00195016       0.00026363       0.13348886
Pt       8.27496176       4.77755177       0.00000087        0       0.00000000      -0.00000719       0.00167102       0.13245481
Pt      11.03328240       4.77755159       0.00000113        0       0.00000000       0.00192703       0.00026861       0.13348791
Pt      13.79160305       4.77755159       0.00000129        0       0.00000000       0.00272044       0.00646564       0.12613463
Pt       4.13748079       7.16632756       0.00000111        0       0.00000000      -0.00060236       0.00189031       0.13029948
Pt       6.89580146       7.16632759       0.00000109        0       0.00000000       0.00018228       0.00379453       0.13350967
Pt       9.65412208       7.16632755       0.00000130        0       0.00000000      -0.00020094       0.00379795       0.13349658
Pt      12.41244264       7.16632749       0.00000147        0       0.00000000       0.00057220       0.00189136       0.13029018
Pt      15.17076330       7.16632753       0.00000168        0       0.00000000      -0.00000960       0.00629629       0.12414214
Pt       5.51664133       9.55510348       0.00000140        0       0.00000000      -0.00571962       0.00142140       0.12652731
Pt       8.27496170       9.55510347       0.00000156        0       0.00000000      -0.00001279       0.00208857       0.13073319
Pt      11.03328233       9.55510332       0.00000163        0       0.00000000       0.00569999       0.00142663       0.12652650
Pt      13.79160294       9.55510332       0.00000180        0       0.00000000       0.00439263      -0.00111679       0.12402323
Pt      16.54992351       9.55510324       0.00000197        0       0.00000000      -0.00441037      -0.00111305       0.12404722
Pt       1.37916046       0.79625891       2.38854322        1       0.00000000       0.00008173      -0.00486998       0.08845811
Pt       4.13748118       0.79625904       2.38854321        1       0.00000000      -0.05563482      -0.02269490      -0.08122008
Pt       6.89580177       0.79625874       2.38854312        1       0.00000000      -0.00916435      -0.00113907      -0.16273528
Pt       9.65412216       0.79625869       2.38854340        1       0.00000000       0.00934788      -0.00114632      -0.16264819
Pt      12.41244283       0.79625878       2.38854371        1       0.00000000       0.05566386      -0.02266894      -0.08130071
Pt       2.75832072       3.18503486       2.38854320        1       0.00000000      -0.04021157      -0.04662317      -0.08538569
Pt       5.51664121       3.18503462       2.38854355        1       0.00000000      -0.00835535      -0.01362399      -0.16521902
Pt       8.27496190       3.18503470       2.38854341        1       0.00000000       0.00010849      -0.00550009      -0.15172058
Pt      11.03328255       3.18503481       2.38854380        1       0.00000000       0.00846580      -0.01364272      -0.16507927
Pt      13.79160321       3.18503467       2.38854404        1       0.00000000       0.04030205      -0.04660393      -0.08538452
Pt       4.13748100       5.57381065       2.38854369        1       0.00000000       0.00338964      -0.01980734      -0.16485825
Pt       6.89580173       5.57381054       2.38854381        1       0.00000000       0.00292222      -0.00873710      -0.15262794
Pt       9.65412207       5.57381056       2.38854394        1       0.00000000      -0.00281032      -0.00878350      -0.15256584
Pt      12.41244279       5.57381062       2.38854397        1       0.00000000      -0.00330015      -0.01985044      -0.16482492
Pt      15.17076346       5.57381055       2.38854403        1       0.00000000       0.00006850      -0.05042413      -0.14563733
Pt       5.51664151       7.96258644       2.38854405        1       0.00000000       0.01163432      -0.00302116      -0.16452621
Pt       8.27496191       7.96258639       2.38854430        1       0.00000000       0.00004453       0.00392302      -0.16525471
Pt      11.03328242       7.96258650       2.38854453        1       0.00000000      -0.01153104      -0.00305132      -0.16459507
Pt      13.79160307       7.96258652       2.38854447        1       0.00000000      -0.00128977      -0.00793216      -0.16459948
Pt      16.54992363       7.96258639       2.38854479        1       0.00000000       0.00144761      -0.00791806      -0.16454938
Pt       6.89580146      10.35136231       2.38854445        1       0.00000000       0.01349931       0.04863256      -0.08120850
Pt       9.65412211      10.35136230       2.38854437        1       0.00000000      -0.01338683       0.04868128      -0.08115018
Pt      12.41244281      10.35136234       2.38854469        1       0.00000000      -0.03745055       0.01473513      -0.14153099
Pt      15.17076345      10.35136224       2.38854446        1       0.00000000       0.00010378      -0.00622576      -0.16289924
Pt      17.92908397      10.35136222       2.38854460        1       0.00000000       0.03753303       0.01470580      -0.14148518
Pt       0.00989820       1.57680585       4.77913572        2       0.00000000      -0.00138916       0.00348227      -0.00657753
Pt       2.74858763       1.57679466       4.77916420        2       0.00000000       0.00129896       0.00353049      -0.00665014
Pt       5.51442432       1.58242307       4.72595170        2       0.00000000      -0.00098655       0.00425466      -0.00099565
Pt       8.27506801       1.58073263       4.72759737        2       0.00000000      -0.00011283       0.00466018       0.00059712
Pt      11.03568018       1.58241351       4.72599033        2       0.00000000       0.00089455       0.00426666      -0.00108995
Pt       1.37923996       3.96065453       4.75537322        2       0.00000000      -0.00002430       0.00737897      -0.00256309
Pt       4.13764757       3.96750401       4.72569450        2       0.00000000      -0.00031252       0.00736511      -0.00117740
Pt       6.89631850       3.97058592       4.72955490        2       0.00000000      -0.00006836       0.00142732       0.00142568
Pt       9.65378448       3.97057386       4.72958978        2       0.00000000      -0.00003844       0.00148397       0.00133389
Pt      12.41242982       3.96750863       4.72571898        2       0.00000000       0.00029184       0.00736841      -0.00125310
Pt       2.75833463       6.35998707       4.72203828        2       0.00000000      -0.00106573       0.00755277       0.00311750
Pt       5.51709005       6.35980147       4.72740070        2       0.00000000      -0.00092126       0.00294397       0.00137790
Pt       8.27503342       6.36019124       4.72963826        2       0.00000000       0.00000896      -0.00182242       0.00118861
Pt      11.03297647       6.35978532       4.72739909        2       0.00000000       0.00092069       0.00300434       0.00138862
Pt      13.79174479       6.35998337       4.72203184        2       0.00000000       0.00100933       0.00758163       0.00314265
Pt       4.13727077       8.74883560       4.72239386        2       0.00000000       0.00017239       0.00442219       0.00134030
Pt       6.89833230       8.75079491       4.72598157        2       0.00000000      -0.00125172       0.00069881      -0.00105099
Pt       9.65174722       8.75078658       4.72596453        2       0.00000000       0.00118126       0.00074633      -0.00099728
Pt      12.41280637       8.74884022       4.72236324        2       0.00000000      -0.00022499       0.00443132       0.00141086
Pt      15.17084829       8.74744415       4.72607392        2       0.00000000      -0.00005049       0.00772056       0.00192927
Pt       5.52680409      11.14313971       4.75629778        2       0.00000000       0.00051824       0.00223556       0.00088895
Pt       8.27505813      11.14815640       4.77833267        2       0.00000000      -0.00010600       0.00321402      -0.00247839
Pt      11.02327637      11.14315763       4.75631539        2       0.00000000      -0.00062125       0.00219361       0.00087492
Pt      13.79159246      11.13545952       4.72293901        2       0.00000000      -0.00113601       0.00442988      -0.00023036
Pt      16.55010904      11.13544738       4.72296641        2       0.00000000       0.00099895       0.00445554      -0.00030504
Pt      -0.11363200      -0.08127965       7.18850699        3       0.00000000      -0.02850020      -0.01265956      -0.02114851
Pt       2.87210578      -0.08128000       7.18869835        3       0.00000000       0.02862400      -0.01262061      -0.02166957
Pt       5.56229318      -0.02439770       7.07998524        3       0.00000000      -0.00302169       0.00786776      -0.00166652
Pt       8.27506303      -0.01946381       7.08614943        3       0.00000000       0.00001266       0.00854354       0.00306061
Pt      10.98781093      -0.02439603       7.08003728        3       0.00000000       0.00305775       0.00785492      -0.00181738
Pt       1.37927411       2.52058627       7.18456095        3       0.00000000      -0.00003198      -0.01580203      -0.00576994
Pt       4.14831336       2.37833596       7.07841149        3       0.00000000      -0.00042799       0.00623096      -0.00507227
Pt       6.90430810       2.37569357       7.08657591        3       0.00000000      -0.00154782       0.00660877       0.00165352
Pt       9.64585790       2.37569961       7.08665160        3       0.00000000       0.00146614       0.00660726       0.00144058
Pt      12.40183875       2.37837259       7.07843516        3       0.00000000       0.00038965       0.00614041      -0.00516030
Pt       2.77978638       4.80945931       7.07872153        3       0.00000000      -0.00790107      -0.00381206      -0.00000095
Pt       5.52743006       4.76494689       7.08633279        3       0.00000000      -0.00377302       0.00550150       0.00218698
Pt       8.27508762       4.76078798       7.08969530        3       0.00000000      -0.00003981       0.00169450       0.00272372
Pt      11.02273868       4.76497384       7.08639425        3       0.00000000       0.00370229       0.00545257       0.00202972
Pt      13.77038079       4.80947605       7.07874511        3       0.00000000       0.00782959      -0.00384166      -0.00005046
Pt       4.13981253       7.15179658       7.08603304        3       0.00000000      -0.00413249       0.00193990       0.00277060
Pt       6.89747895       7.14150179       7.08680238        3       0.00000000      -0.00063148       0.00031054       0.00159267
Pt       9.65267315       7.14151951       7.08678922        3       0.00000000       0.00060062       0.00026923       0.00162888
Pt      12.41034298       7.15181399       7.08598823        3       0.00000000       0.00408800       0.00193600       0.00288293
Pt      15.17088369       7.16090677       7.08734177        3       0.00000000      -0.00003310       0.00906439       0.00099677
Pt       5.48901574       9.50350256       7.07904337        3       0.00000000       0.00180701       0.00487005       0.00097731
Pt       8.27506614       9.52885991       7.08031965        3       0.00000000       0.00000468      -0.00210940      -0.00773051
Pt      11.06111997       9.50353524       7.07900144        3       0.00000000      -0.00186004       0.00482164       0.00111136
Pt      13.80143135       9.53097418       7.08725779        3       0.00000000      -0.00083791       0.01019724       0.00323519
Pt      16.54032947       9.53096788       7.08731981        3       0.00000000       0.00076550       0.01021726       0.00307003
O        1.37916551       0.79317726       8.22863551        0       0.00000000       0.00020241      -0.00790911       0.02012141
