65
Lattice="11.033086113260774 5.600493888326504e-08 2.5686178914223706e-08 5.516543105132088 9.554933067924482 1.9872236184885125e-07 0.0 0.0 37.15231387033118" Properties=species:S:1:pos:R:3:tags:I:1:initial_magmoms:R:1:forces:R:3 energy=-374.3538818359375 free_energy=-374.3538818359375 stress="0.009501223927386199 1.7097541486824703e-09 -7.23365633411638e-10 1.7097541486824703e-09 0.009501214998835775 3.0566758099941435e-09 -7.23365633411638e-10 3.0566758099941435e-09 0.0014770091740294081" pbc="T T T"
Pt      -0.00000001       0.00000000       0.00000000        0       0.00000000      -0.00000101      -0.00000104       0.14399666
Pt       2.75827155       0.00000002       0.00000007        0       0.00000000       0.00103211      -0.00137490       0.13540795
Pt       5.51654309       0.00000006       0.00000007        0       0.00000000       0.00000288      -0.00194931       0.13527149
Pt       8.27481455       0.00000002       0.00000007        0       0.00000000      -0.00103186      -0.00137759       0.13541159
Pt       1.37913578       2.38873328       0.00000009        0       0.00000000      -0.00067642       0.00158024       0.13541132
Pt       4.13740732       2.38873326       0.00000010        0       0.00000000       0.00011051       0.00006448       0.13091615
Pt       6.89567885       2.38873330       0.00000010        0       0.00000000      -0.00010830       0.00006452       0.13091591
Pt       9.65395039       2.38873333       0.00000011        0       0.00000000       0.00067114       0.00157858       0.13541004
Pt       2.75827157       4.77746655       0.00000018        0       0.00000000      -0.00168595       0.00097460       0.13527051
Pt       5.51654311       4.77746655       0.00000018        0       0.00000000       0.00000034      -0.00012664       0.13091514
Pt       8.27481459       4.77746656       0.00000016        0       0.00000000       0.00168696       0.00097105       0.13527042
Pt      11.03308612       4.77746666       0.00000025        0       0.00000000       0.00000173       0.00213837       0.12594375
Pt       4.13740734       7.16619989       0.00000032        0       0.00000000      -0.00170515      -0.00020610       0.13541079
Pt       6.89567883       7.16619981       0.00000025        0       0.00000000       0.00170417      -0.00020445       0.13541034
Pt       9.65395036       7.16619988       0.00000022        0       0.00000000       0.00185016      -0.00106849       0.12594354
Pt      12.41222192       7.16619985       0.00000023        0       0.00000000      -0.00185081      -0.00106592       0.12594637
Pt       1.37913581       0.79624445       2.38855938        1       0.00000000      -0.02429047      -0.01402144      -0.07797364
Pt       4.13740731       0.79624445       2.38855951        1       0.00000000      -0.01061421      -0.00924501      -0.13848445
Pt       6.89567888       0.79624443       2.38855941        1       0.00000000       0.01061596      -0.00924615      -0.13847959
Pt       9.65395033       0.79624446       2.38855954        1       0.00000000       0.02428563      -0.01402177      -0.07797291
Pt       2.75827161       3.18497767       2.38855947        1       0.00000000      -0.01331785      -0.00457044      -0.13848089
Pt       5.51654314       3.18497767       2.38855952        1       0.00000000       0.00000380      -0.00000160      -0.14368108
Pt       8.27481457       3.18497770       2.38855940        1       0.00000000       0.01331472      -0.00457163      -0.13848181
Pt      11.03308614       3.18497759       2.38855939        1       0.00000000       0.00000300      -0.00784162      -0.12422888
Pt       4.13740736       5.57371086       2.38855937        1       0.00000000      -0.00270197       0.01382226      -0.13848224
Pt       6.89567888       5.57371105       2.38855956        1       0.00000000       0.00270276       0.01381753      -0.13848048
Pt       9.65395045       5.57371094       2.38855956        1       0.00000000      -0.00787502      -0.00454244      -0.11992149
Pt      12.41222194       5.57371108       2.38855958        1       0.00000000       0.00787242      -0.00454255      -0.11992134
Pt       5.51654310       7.96244423       2.38855960        1       0.00000000       0.00000169       0.02804405      -0.07797462
Pt       8.27481475       7.96244428       2.38855962        1       0.00000000      -0.00679203       0.00391809      -0.12423181
Pt      11.03308616       7.96244430       2.38855961        1       0.00000000       0.00000495       0.00908811      -0.11992517
Pt      13.79135772       7.96244428       2.38855965        1       0.00000000       0.00678810       0.00392143      -0.12423316
Pt      -0.00000064       1.58348504       4.75569673        2       0.00000000       0.00000155      -0.00622527      -0.03885700
Pt       2.76001456       1.59349521       4.73400877        2       0.00000000      -0.00197369      -0.00114202       0.00361031
Pt       5.51654291       1.59153609       4.72895527        2       0.00000000       0.00000094       0.00448890       0.00379436
Pt       8.27307105       1.59349560       4.73401007        2       0.00000000       0.00197205      -0.00114523       0.00359835
Pt       1.37766318       3.97632974       4.73564887        2       0.00000000       0.00349422       0.00291410       0.00067358
Pt       4.13658167       3.98169914       4.72895549        2       0.00000000       0.00388654      -0.00224674       0.00379483
Pt       6.89650536       3.98169915       4.72895554        2       0.00000000      -0.00389480      -0.00224703       0.00379050
Pt       9.65542284       3.97632964       4.73564814        2       0.00000000      -0.00349084       0.00291800       0.00067963
Pt       2.76177171       6.37367668       4.73564861        2       0.00000000      -0.00077500      -0.00447812       0.00067961
Pt       5.51654345       6.36794247       4.73400903        2       0.00000000      -0.00000305       0.00228601       0.00360502
Pt       8.27131422       6.37367675       4.73564883        2       0.00000000       0.00077297      -0.00447887       0.00067559
Pt      11.03308650       6.36995554       4.72712871        2       0.00000000      -0.00000380      -0.00000053       0.01311144
Pt       4.14520434       8.76319019       4.75569764        2       0.00000000       0.00538561       0.00310970      -0.03886074
Pt       6.88788096       8.76318999       4.75569796        2       0.00000000      -0.00538180       0.00310877      -0.03885853
Pt       9.64897701       8.75985945       4.73564867        2       0.00000000       0.00426650       0.00157076       0.00067765
Pt      12.41719464       8.75986010       4.73564856        2       0.00000000      -0.00426284       0.00156595       0.00067750
Pt      -0.00000070       0.00000000       7.15685073        3       0.00000000       0.00000465       0.00000231      -0.03774585
Pt       2.76727989       0.00180950       7.10305617        3       0.00000000      -0.01807068      -0.00849003      -0.03171608
Pt       5.51654251       0.00100948       7.08708740        3       0.00000000       0.00000722       0.00036126       0.01491952
Pt       8.26580781       0.00181070       7.10305694        3       0.00000000       0.01805551      -0.00849514      -0.03171980
Pt       1.38520636       2.39562821       7.10305599        3       0.00000000      -0.01638441      -0.01139447      -0.03171507
Pt       4.13936235       2.38986305       7.08800852        3       0.00000000       0.00186487       0.00107574       0.00758186
Pt       6.89372219       2.38986348       7.08800933        3       0.00000000      -0.00186013       0.00107342       0.00757983
Pt       9.64787871       2.39562862       7.10305600        3       0.00000000       0.01638791      -0.01139239      -0.03171152
Pt       2.75914488       4.77696226       7.08708796        3       0.00000000       0.00031653      -0.00018067       0.01491818
Pt       5.51654312       4.77520841       7.08800850        3       0.00000000       0.00000049      -0.00215225       0.00758260
Pt       8.27394161       4.77696244       7.08708768        3       0.00000000      -0.00031758      -0.00018057       0.01492256
Pt      11.03308615       4.78132464       7.08890670        3       0.00000000       0.00000262      -0.00333531       0.00749320
Pt       4.13447165       7.15749510       7.10305607        3       0.00000000       0.00167653       0.01988273      -0.03171483
Pt       6.89861471       7.15749466       7.10305605        3       0.00000000      -0.00167366       0.01988644      -0.03171623
Pt       9.65729244       7.16427006       7.08890686        3       0.00000000      -0.00289015       0.00166847       0.00749168
Pt      12.40888103       7.16427082       7.08890660        3       0.00000000       0.00288419       0.00166733       0.00749058
H        0.00000017       0.00000005       8.70530969        0       0.00000000      -0.00000041       0.00000026       0.02336884
