66
Lattice="11.033086113260774 5.600493888326504e-08 2.5686178914223706e-08 5.516543105132088 9.554933067924482 1.9872236184885125e-07 0.0 0.0 37.15231387033118" Properties=species:S:1:pos:R:3:tags:I:1:initial_magmoms:R:1:forces:R:3 energy=-380.3922424316406 free_energy=-380.3922424316406 stress="0.009298370981994642 -3.260531066323686e-05 -0.0001885911904389921 -3.260531066323686e-05 0.00928665151551799 7.982311252607712e-05 -0.0001885911904389921 7.982311252607712e-05 0.0013362043527540498" pbc="T T T"
Pt      -0.00000001       0.00000000       0.00000000        0       0.00000000       0.00249480      -0.00447795       0.13314077
Pt       2.75827155       0.00000002       0.00000007        0       0.00000000       0.00332335      -0.00067412       0.15336573
Pt       5.51654309       0.00000006       0.00000007        0       0.00000000       0.00449395      -0.00448364       0.13383916
Pt       8.27481455       0.00000002       0.00000007        0       0.00000000       0.00349539      -0.00215993       0.13402435
Pt       1.37913578       2.38873328       0.00000009        0       0.00000000       0.00604509       0.00258266       0.13176173
Pt       4.13740732       2.38873326       0.00000010        0       0.00000000       0.00058544       0.00245967       0.13273108
Pt       6.89567885       2.38873330       0.00000010        0       0.00000000       0.00273542      -0.00097360       0.13145989
Pt       9.65395039       2.38873333       0.00000011        0       0.00000000       0.00417689      -0.00116935       0.13132262
Pt       2.75827157       4.77746655       0.00000018        0       0.00000000       0.00302254       0.00521086       0.11904684
Pt       5.51654311       4.77746655       0.00000018        0       0.00000000       0.00201293      -0.00033282       0.13392201
Pt       8.27481459       4.77746656       0.00000016        0       0.00000000       0.00357172      -0.00022443       0.13165843
Pt      11.03308612       4.77746666       0.00000025        0       0.00000000       0.00508618      -0.00061717       0.13326177
Pt       4.13740734       7.16619989       0.00000032        0       0.00000000      -0.00271741      -0.00507794       0.11989319
Pt       6.89567883       7.16619981       0.00000025        0       0.00000000      -0.00062870      -0.00007384       0.13460281
Pt       9.65395036       7.16619988       0.00000022        0       0.00000000       0.00750686      -0.00044144       0.13384929
Pt      12.41222192       7.16619985       0.00000023        0       0.00000000       0.00941986      -0.00470464       0.12144443
Pt       1.37913581       0.79624445       2.38855938        1       0.00000000       0.03516728      -0.03037753      -0.04642765
Pt       4.13740731       0.79624445       2.38855951        1       0.00000000      -0.06625279      -0.02932799      -0.05328711
Pt       6.89567888       0.79624443       2.38855941        1       0.00000000      -0.02254787       0.00129024      -0.15900660
Pt       9.65395033       0.79624446       2.38855954        1       0.00000000      -0.01160089       0.00175099      -0.16432767
Pt       2.75827161       3.18497767       2.38855947        1       0.00000000      -0.01484282      -0.02699795      -0.14266557
Pt       5.51654314       3.18497767       2.38855952        1       0.00000000      -0.01847081       0.00098592      -0.15969944
Pt       8.27481457       3.18497770       2.38855940        1       0.00000000      -0.01680099       0.00516497      -0.14435419
Pt      11.03308614       3.18497759       2.38855939        1       0.00000000      -0.01382020       0.00157462      -0.16380808
Pt       4.13740736       5.57371086       2.38855937        1       0.00000000      -0.00983180       0.00516318      -0.13685045
Pt       6.89567888       5.57371105       2.38855956        1       0.00000000      -0.01445604       0.01382885      -0.14952943
Pt       9.65395045       5.57371094       2.38855956        1       0.00000000      -0.01958999       0.01132198      -0.15629010
Pt      12.41222194       5.57371108       2.38855958        1       0.00000000      -0.01955543       0.00417690      -0.14078024
Pt       5.51654310       7.96244423       2.38855960        1       0.00000000       0.02017116       0.01884721      -0.12499173
Pt       8.27481475       7.96244428       2.38855962        1       0.00000000      -0.01745037       0.06045832      -0.03993815
Pt      11.03308616       7.96244430       2.38855961        1       0.00000000      -0.04236421       0.01711896      -0.14318132
Pt      13.79135772       7.96244428       2.38855965        1       0.00000000      -0.01703593       0.00573806      -0.14249003
Pt      -0.02578484       1.59943762       4.72609785        2       0.00000000       0.00344213       0.00170282      -0.00022966
Pt       2.73387654       1.58010749       4.76891379        2       0.00000000       0.00313521       0.00060108      -0.00064316
Pt       5.49339218       1.59913693       4.72747518        2       0.00000000       0.00308428       0.00100289      -0.00026947
Pt       8.24983757       1.59741878       4.72894376        2       0.00000000       0.00323344       0.00103523       0.00037146
Pt       1.35840350       3.98500277       4.72590813        2       0.00000000       0.00292218       0.00063161       0.00050439
Pt       4.11108312       3.98474546       4.72646719        2       0.00000000       0.00183166       0.00046784      -0.00008534
Pt       6.87102735       3.98786190       4.72987819        2       0.00000000       0.00216804       0.00030798      -0.00066251
Pt       9.63041745       3.98867125       4.72922569        2       0.00000000       0.00268557       0.00041206      -0.00004669
Pt       2.73434619       6.37621026       4.72743148        2       0.00000000       0.00366734       0.00116229       0.00022109
Pt       5.49664671       6.38218070       4.73029723        2       0.00000000       0.00190595      -0.00022142      -0.00122556
Pt       8.24986750       6.37632727       4.73107145        2       0.00000000       0.00337758      -0.00031085      -0.00154346
Pt      11.00599077       6.38153944       4.72814207        2       0.00000000       0.00469504       0.00020772      -0.00176503
Pt       4.11722442       8.76368930       4.72599618        2       0.00000000       0.00318553       0.00102795      -0.00148888
Pt       6.88842625       8.77510677       4.77467790        2       0.00000000       0.00377876       0.00020403      -0.00417131
Pt       9.61229181       8.77489233       4.77115979        2       0.00000000       0.00455132       0.00026026      -0.00069655
Pt      12.38181121       8.76353246       4.72749097        2       0.00000000       0.00459770       0.00111425      -0.00115228
Pt      -0.06770525       0.01519869       7.07674715        3       0.00000000       0.00329029      -0.00017137      -0.00376946
Pt       2.70509799       0.01306745       7.28750944        3       0.00000000       0.00005679      -0.00854698      -0.00181036
Pt       5.48979390       0.01421443       7.08196205        3       0.00000000       0.00877529       0.00039031      -0.00433579
Pt       8.22912796       0.01082851       7.08535357        3       0.00000000       0.00831979       0.00224045       0.00198668
Pt       1.32302249       2.41975450       7.07544923        3       0.00000000       0.00985731      -0.00165739       0.00075912
Pt       4.10715847       2.41761740       7.07816152        3       0.00000000       0.00585263      -0.00263400      -0.00271305
Pt       6.85473694       2.40117769       7.08920682        3       0.00000000       0.00687951       0.00146454       0.00002539
Pt       9.60703933       2.40218670       7.08639440        3       0.00000000       0.00748004       0.00219854       0.00153285
Pt       2.71635575       4.79211188       7.08651308        3       0.00000000       0.00612360       0.00159649      -0.00039849
Pt       5.47586380       4.78996267       7.08682565        3       0.00000000       0.00375362      -0.00099459       0.00028130
Pt       8.23223929       4.78791301       7.08840093        3       0.00000000       0.00588772      -0.00106561      -0.00098160
Pt      10.98916333       4.79071603       7.08635891        3       0.00000000       0.00833839      -0.00177618      -0.00040945
Pt       4.09152130       7.17556317       7.08470244        3       0.00000000       0.00687222       0.00153150       0.00201261
Pt       6.84619919       7.16408295       7.09376851        3       0.00000000       0.00399362      -0.00612025      -0.00464964
Pt       9.61890109       7.16324777       7.08262805        3       0.00000000       0.01062211      -0.00429459      -0.00479916
Pt      12.37095176       7.17612571       7.08697046        3       0.00000000       0.00894549       0.00189619      -0.00060374
O        2.65818360       0.07655144       9.35964323        0       0.00000000       0.04707969      -0.01076350      -0.00533289
O        2.05643792      -0.76677181      10.10890468        0       0.00000000      -0.00973261      -0.02845838      -0.00560775
