65
Lattice="11.033086113260774 5.600493888326504e-08 2.5686178914223706e-08 5.516543105132088 9.554933067924482 1.9872236184885125e-07 0.0 0.0 37.15231387033118" Properties=species:S:1:pos:R:3:tags:I:1:initial_magmoms:R:1:forces:R:3 energy=-376.3855895996094 free_energy=-376.3855895996094 stress="0.007941020752648643 -1.768580317744985e-06 4.6744332924629795e-06 -1.768580317744985e-06 0.00794306167046627 2.6966047879659604e-06 4.6744332924629795e-06 2.6966047879659604e-06 0.001394328285953407" pbc="T T T"
Pt      -0.00000001       0.00000000       0.00000000        0       0.00000000      -0.00450041      -0.00259845       0.14773914
Pt       2.75827155       0.00000002       0.00000007        0       0.00000000       0.00432747      -0.00262586       0.14766428
Pt       5.51654309       0.00000006       0.00000007        0       0.00000000       0.00432913      -0.00719141       0.12536243
Pt       8.27481455       0.00000002       0.00000007        0       0.00000000      -0.00460064      -0.00717907       0.12542003
Pt       1.37913578       2.38873328       0.00000009        0       0.00000000      -0.00011204       0.00505743       0.14766479
Pt       4.13740732       2.38873326       0.00000010        0       0.00000000      -0.00104412      -0.00060174       0.13178244
Pt       6.89567885       2.38873330       0.00000010        0       0.00000000      -0.00011098      -0.00228812       0.13502273
Pt       9.65395039       2.38873333       0.00000011        0       0.00000000       0.00085739      -0.00059749       0.13183385
Pt       2.75827157       4.77746655       0.00000018        0       0.00000000      -0.00406264       0.00734182       0.12535933
Pt       5.51654311       4.77746655       0.00000018        0       0.00000000      -0.00203776       0.00104688       0.13502240
Pt       8.27481459       4.77746656       0.00000016        0       0.00000000       0.00176517       0.00101647       0.13492718
Pt      11.03308612       4.77746666       0.00000025        0       0.00000000       0.00378741       0.00740107       0.12536034
Pt       4.13740734       7.16619989       0.00000032        0       0.00000000      -0.00851353      -0.00039537       0.12541923
Pt       6.89567883       7.16619981       0.00000025        0       0.00000000      -0.00008735       0.00104578       0.13183329
Pt       9.65395036       7.16619988       0.00000022        0       0.00000000       0.00830013      -0.00042140       0.12536007
Pt      12.41222192       7.16619985       0.00000023        0       0.00000000      -0.00010780      -0.00006012       0.10234708
Pt       1.37913581       0.79624445       2.38855938        1       0.00000000       0.00011991       0.00007106       0.09303059
Pt       4.13740731       0.79624445       2.38855951        1       0.00000000      -0.06095546      -0.01509259      -0.08729918
Pt       6.89567888       0.79624443       2.38855941        1       0.00000000       0.00076658       0.01141611      -0.18191145
Pt       9.65395033       0.79624446       2.38855954        1       0.00000000       0.06184667      -0.01490741      -0.08714537
Pt       2.75827161       3.18497767       2.38855947        1       0.00000000      -0.04355120      -0.04524500      -0.08730067
Pt       5.51654314       3.18497767       2.38855952        1       0.00000000      -0.01033353      -0.00596873      -0.18128502
Pt       8.27481457       3.18497770       2.38855940        1       0.00000000       0.01137286      -0.00595376      -0.18082979
Pt      11.03308614       3.18497759       2.38855939        1       0.00000000       0.04438870      -0.04533023      -0.08708516
Pt       4.13740736       5.57371086       2.38855937        1       0.00000000       0.01027019      -0.00504046      -0.18190466
Pt       6.89567888       5.57371105       2.38855956        1       0.00000000       0.00053085       0.01282676      -0.18082751
Pt       9.65395045       5.57371094       2.38855956        1       0.00000000      -0.00868198      -0.00500978      -0.18144855
Pt      12.41222194       5.57371108       2.38855958        1       0.00000000       0.00054859      -0.04111987      -0.15119816
Pt       5.51654310       7.96244423       2.38855960        1       0.00000000       0.01801664       0.06101437      -0.08714376
Pt       8.27481475       7.96244428       2.38855962        1       0.00000000      -0.01706278       0.06110422      -0.08708803
Pt      11.03308616       7.96244430       2.38855961        1       0.00000000      -0.03533698       0.02103718      -0.15119852
Pt      13.79135772       7.96244428       2.38855965        1       0.00000000       0.03668472       0.02118224      -0.15165062
Pt       0.01137014       1.58679750       4.78183458        2       0.00000000      -0.00463508       0.00272068      -0.02520190
Pt       2.74844390       1.58681550       4.78159507        2       0.00000000       0.00499583       0.00287973      -0.02456418
Pt       5.51317241       1.59356202       4.72281234        2       0.00000000       0.00524079       0.00163385       0.00059180
Pt       8.27980501       1.59369437       4.72296976        2       0.00000000      -0.00572349       0.00119276      -0.00048678
Pt       1.37987553       3.96464629       4.75464452        2       0.00000000       0.00034187       0.00309475      -0.00567374
Pt       4.13665079       3.97776564       4.72281225        2       0.00000000       0.00404019       0.00373496       0.00059082
Pt       6.89631795       3.98159133       4.72404125        2       0.00000000       0.00134123       0.00077951       0.01012637
Pt       9.65619253       3.97784571       4.72286779        2       0.00000000      -0.00337325       0.00372982       0.00019339
Pt       2.75913790       6.37053036       4.71493947        2       0.00000000      -0.00159585      -0.00039667       0.00594559
Pt       5.52008249       6.37367513       4.72296983        2       0.00000000      -0.00183643      -0.00556391      -0.00049031
Pt       8.27301148       6.37358683       4.72286865        2       0.00000000       0.00154530      -0.00478958       0.00019458
Pt      11.03418266       6.37058914       4.71503227        2       0.00000000      -0.00030040      -0.00017844       0.00483654
Pt       4.15297730       8.76767816       4.75472287        2       0.00000000      -0.00365450      -0.00210704      -0.00656959
Pt       6.89643478       8.77138205       4.78183511        2       0.00000000       0.00004147      -0.00537651      -0.02520656
Pt       9.63996545       8.76761720       4.75464527        2       0.00000000       0.00285308      -0.00124239      -0.00567827
Pt      12.41315446       8.75915108       4.71494013        2       0.00000000      -0.00114759      -0.00119190       0.00594313
Pt      -0.10467093      -0.06043179       7.20324894        3       0.00000000       0.03823718       0.02208042      -0.01974019
Pt       2.86405171      -0.05933360       7.20307256        3       0.00000000      -0.03490263       0.01899977      -0.01849888
Pt       5.54640199      -0.00340107       7.07603404        3       0.00000000       0.00065780       0.00081857       0.00103059
Pt       8.24712445      -0.00318628       7.07622542        3       0.00000000      -0.00155735      -0.00028560       0.00087759
Pt       1.38064137       2.51000885       7.20307284        3       0.00000000      -0.00100024      -0.03972584      -0.01850471
Pt       4.14788657       2.39478363       7.08290580        3       0.00000000       0.00344690       0.00198669      -0.01430479
Pt       6.89712757       2.39555098       7.08096377        3       0.00000000      -0.00052592      -0.00173923       0.00967646
Pt       9.64649247       2.39506774       7.08287830        3       0.00000000      -0.00423646       0.00090741      -0.01408225
Pt       2.77025521       4.80502497       7.07603434        3       0.00000000       0.00104349       0.00016874       0.00102618
Pt       5.52317132       4.77531281       7.08096340        3       0.00000000      -0.00176774       0.00041193       0.00967535
Pt       8.27139309       4.77549137       7.08098876        3       0.00000000       0.00032270       0.00018900       0.00950751
Pt      11.02411758       4.80561542       7.07609123        3       0.00000000      -0.00132666      -0.00295612       0.00139102
Pt       4.12080216       7.14381313       7.07622453        3       0.00000000      -0.00103492      -0.00121168       0.00088099
Pt       6.89743583       7.15657380       7.08287907        3       0.00000000      -0.00132808      -0.00412587      -0.01408395
Pt       9.67384371       7.14435897       7.07609251        3       0.00000000      -0.00322264       0.00032802       0.00138894
Pt      12.41401100       7.16723269       7.08000761        3       0.00000000      -0.00158948      -0.00091438       0.00445089
O        1.37905689       0.79619936       8.27676330        0       0.00000000       0.00383760       0.00221371      -0.00107424
