66
Lattice="11.033086113260774 5.600493888326504e-08 2.5686178914223706e-08 5.516543105132088 9.554933067924482 1.9872236184885125e-07 0.0 0.0 37.15231387033118" Properties=species:S:1:pos:R:3:tags:I:1:initial_magmoms:R:1:forces:R:3 energy=-377.4613952636719 free_energy=-377.4613952636719 stress="0.009097082765064796 -1.5999649191088063e-06 2.69805527777576e-06 -1.5999649191088063e-06 0.009098930230956582 1.5580291424637459e-06 2.69805527777576e-06 1.5580291424637459e-06 0.0008999699809642039" pbc="T T T"
Pt      -0.00000001       0.00000000       0.00000000        0       0.00000000      -0.00054580      -0.00031583       0.13082576
Pt       2.75827155       0.00000002       0.00000007        0       0.00000000       0.00055789      -0.00034684       0.13066876
Pt       5.51654309       0.00000006       0.00000007        0       0.00000000      -0.00161591      -0.00063543       0.13701722
Pt       8.27481455       0.00000002       0.00000007        0       0.00000000       0.00148269      -0.00063191       0.13703850
Pt       1.37913578       2.38873328       0.00000009        0       0.00000000      -0.00002286       0.00065410       0.13067040
Pt       4.13740732       2.38873326       0.00000010        0       0.00000000       0.00209142       0.00120825       0.12222886
Pt       6.89567885       2.38873330       0.00000010        0       0.00000000       0.00002157       0.00004987       0.13114643
Pt       9.65395039       2.38873333       0.00000011        0       0.00000000      -0.00211657       0.00116935       0.12243611
Pt       2.75827157       4.77746655       0.00000018        0       0.00000000      -0.00135826      -0.00108363       0.13701415
Pt       5.51654311       4.77746655       0.00000018        0       0.00000000       0.00005356      -0.00000670       0.13114557
Pt       8.27481459       4.77746656       0.00000016        0       0.00000000      -0.00002445      -0.00001633       0.13095620
Pt      11.03308612       4.77746666       0.00000025        0       0.00000000       0.00127102      -0.00107877       0.13701180
Pt       4.13740734       7.16619989       0.00000032        0       0.00000000       0.00019892       0.00159903       0.13703614
Pt       6.89567883       7.16619981       0.00000025        0       0.00000000      -0.00004387      -0.00241352       0.12243661
Pt       9.65395036       7.16619988       0.00000022        0       0.00000000      -0.00030193       0.00163918       0.13701063
Pt      12.41222192       7.16619985       0.00000023        0       0.00000000       0.00000623       0.00000601       0.11671317
Pt       1.37913581       0.79624445       2.38855938        1       0.00000000      -0.00010197      -0.00005659      -0.18751566
Pt       4.13740731       0.79624445       2.38855951        1       0.00000000       0.00939376      -0.02138218      -0.15289769
Pt       6.89567888       0.79624443       2.38855941        1       0.00000000       0.00033942      -0.00420745      -0.15959962
Pt       9.65395033       0.79624446       2.38855954        1       0.00000000      -0.00869344      -0.02083162      -0.15174527
Pt       2.75827161       3.18497767       2.38855947        1       0.00000000      -0.01382545       0.01882484      -0.15289573
Pt       5.51654314       3.18497767       2.38855952        1       0.00000000       0.00020147       0.00011338      -0.15590800
Pt       8.27481457       3.18497770       2.38855940        1       0.00000000       0.00004708      -0.00020119      -0.15519010
Pt      11.03308614       3.18497759       2.38855939        1       0.00000000       0.01380136       0.01844650      -0.15242915
Pt       4.13740736       5.57371086       2.38855937        1       0.00000000      -0.00347571       0.00240025      -0.15960014
Pt       6.89567888       5.57371105       2.38855956        1       0.00000000      -0.00014903       0.00014075      -0.15518990
Pt       9.65395045       5.57371094       2.38855956        1       0.00000000       0.00380034       0.00219609      -0.16006538
Pt      12.41222194       5.57371108       2.38855958        1       0.00000000       0.00017876      -0.01959577      -0.12251291
Pt       5.51654310       7.96244423       2.38855960        1       0.00000000      -0.02238575       0.00288729      -0.15174587
Pt       8.27481475       7.96244428       2.38855962        1       0.00000000       0.02287288       0.00272524      -0.15243417
Pt      11.03308616       7.96244430       2.38855961        1       0.00000000      -0.01687573       0.00995197      -0.12251605
Pt      13.79135772       7.96244428       2.38855965        1       0.00000000       0.01723786       0.00995567      -0.12217547
Pt      -0.00456220       1.59555926       4.72293011        2       0.00000000       0.00090295      -0.00038013       0.00903910
Pt       2.76321663       1.59534383       4.72262805        2       0.00000000      -0.00131818      -0.00075742       0.00951277
Pt       5.52117087       1.59394177       4.72809939        2       0.00000000      -0.00003348      -0.00294242       0.00380908
Pt       8.27080622       1.59375685       4.72840061        2       0.00000000      -0.00005880      -0.00362940       0.00388646
Pt       1.37921569       3.97357211       4.74746735        2       0.00000000      -0.00039917       0.00251145      -0.00154160
Pt       4.14097888       3.98450327       4.72809907        2       0.00000000      -0.00255835       0.00144212       0.00380939
Pt       6.89577878       3.98127988       4.73094256        2       0.00000000      -0.00048485      -0.00028056       0.00595091
Pt       9.65045131       3.98433365       4.72820563        2       0.00000000       0.00355296       0.00144550       0.00385241
Pt       2.75687399       6.37101473       4.72758128        2       0.00000000      -0.00053857       0.00062002       0.00551791
Pt       5.51563659       6.36584966       4.72840022        2       0.00000000      -0.00317160       0.00177271       0.00389096
Pt       8.27575954       6.36536954       4.72820557        2       0.00000000       0.00302959       0.00235707       0.00385311
Pt      11.03469876       6.37088584       4.72745650        2       0.00000000       0.00060953       0.00035403       0.00568604
Pt       4.14430895       8.76267379       4.74726072        2       0.00000000      -0.00334878      -0.00193780      -0.00175925
Pt       6.89605676       8.75320232       4.72293013        2       0.00000000       0.00011695       0.00096561       0.00904040
Pt       9.64736528       8.76258287       4.74746677        2       0.00000000       0.00197782      -0.00160099      -0.00153508
Pt      12.41244079       8.75694853       4.72758162        2       0.00000000       0.00026290      -0.00077548       0.00551817
Pt       0.00508903       0.00293888       7.06817603        3       0.00000000      -0.00229583      -0.00133130       0.03459018
Pt       2.75290180       0.00317963       7.06622604        3       0.00000000       0.00223266      -0.00121478       0.03702249
Pt       5.52382270       0.00155246       7.08658619        3       0.00000000      -0.00175073      -0.00164654       0.00507200
Pt       8.26779801       0.00144998       7.08718460        3       0.00000000       0.00177118      -0.00168660       0.00425830
Pt       1.37920433       2.38249305       7.06622752        3       0.00000000       0.00006309       0.00254134       0.03701687
Pt       4.14397932       2.39252753       7.07574962        3       0.00000000      -0.00098193      -0.00056873       0.02031219
Pt       6.89573030       2.38990188       7.09108906        3       0.00000000       0.00007699      -0.00301858      -0.00011390
Pt       9.64725195       2.39243301       7.07678172        3       0.00000000       0.00155412      -0.00071703       0.01925510
Pt       2.76325560       4.78299490       7.08658576        3       0.00000000      -0.00230414      -0.00069035       0.00507495
Pt       5.51757995       4.77692684       7.09108811        3       0.00000000      -0.00256889       0.00157773      -0.00011227
Pt       8.27380266       4.77688255       7.09127298        3       0.00000000       0.00272799       0.00157631      -0.00006479
Pt      11.02813894       4.78268420       7.08657059        3       0.00000000       0.00234430      -0.00055093       0.00497192
Pt       4.13515441       7.15939843       7.08718437        3       0.00000000      -0.00057274       0.00237956       0.00425526
Pt       6.89553302       7.15854926       7.07678112        3       0.00000000       0.00015550       0.00170399       0.01925322
Pt       9.65599506       7.15930665       7.08657046        3       0.00000000       0.00069432       0.00230519       0.00497255
Pt      12.41206405       7.16610874       7.08742955        3       0.00000000       0.00022139       0.00012529       0.00782564
H        1.41407460       0.81641666       9.20807750        0       0.00000000      -0.00031760      -0.00018362       0.03872260
H        1.41134566       0.81484098       9.96404507        0       0.00000000      -0.00161002      -0.00092949       0.01222172
