67
Lattice="11.033086113260774 5.600493888326504e-08 2.5686178914223706e-08 5.516543105132088 9.554933067924482 1.9872236184885125e-07 0.0 0.0 37.15231387033118" Properties=species:S:1:pos:R:3:tags:I:1:initial_magmoms:R:1:forces:R:3 energy=-384.7300720214844 free_energy=-384.7300720214844 stress="0.009055857415622096 2.350199937830831e-08 5.761061693551516e-07 2.350199937830831e-08 0.008977086023557032 -5.584417375147241e-06 5.761061693551516e-07 -5.584417375147241e-06 0.0008304262457617805" pbc="T T T"
Pt      -0.00000001       0.00000000       0.00000000        0       0.00000000      -0.00000102      -0.00079268       0.13375944
Pt       2.75827155       0.00000002       0.00000007        0       0.00000000       0.00032459      -0.00186458       0.13232020
Pt       5.51654309       0.00000006       0.00000007        0       0.00000000       0.00000363      -0.00092573       0.13487449
Pt       8.27481455       0.00000002       0.00000007        0       0.00000000      -0.00032377      -0.00186747       0.13232103
Pt       1.37913578       2.38873328       0.00000009        0       0.00000000      -0.00081943       0.00113194       0.13003787
Pt       4.13740732       2.38873326       0.00000010        0       0.00000000      -0.00016011       0.00046920       0.13051054
Pt       6.89567885       2.38873330       0.00000010        0       0.00000000       0.00016269       0.00046954       0.13050988
Pt       9.65395039       2.38873333       0.00000011        0       0.00000000       0.00081430       0.00113083       0.13003850
Pt       2.75827157       4.77746655       0.00000018        0       0.00000000       0.00039174       0.00082179       0.13055530
Pt       5.51654311       4.77746655       0.00000018        0       0.00000000       0.00000094       0.00046637       0.12972587
Pt       8.27481459       4.77746656       0.00000016        0       0.00000000      -0.00039149       0.00081891       0.13055760
Pt      11.03308612       4.77746666       0.00000025        0       0.00000000       0.00000237       0.00360170       0.12686387
Pt       4.13740734       7.16619989       0.00000032        0       0.00000000      -0.00096123       0.00001876       0.12738836
Pt       6.89567883       7.16619981       0.00000025        0       0.00000000       0.00096135       0.00002051       0.12738866
Pt       9.65395036       7.16619988       0.00000022        0       0.00000000       0.00187462      -0.00189545       0.12587938
Pt      12.41222192       7.16619985       0.00000023        0       0.00000000      -0.00187640      -0.00189365       0.12587956
Pt       1.37913581       0.79624445       2.38855938        1       0.00000000      -0.00422498      -0.00936328      -0.13985617
Pt       4.13740731       0.79624445       2.38855951        1       0.00000000      -0.00145848      -0.00653375      -0.14883141
Pt       6.89567888       0.79624443       2.38855941        1       0.00000000       0.00145898      -0.00653386      -0.14882551
Pt       9.65395033       0.79624446       2.38855954        1       0.00000000       0.00422062      -0.00936244      -0.13985525
Pt       2.75827161       3.18497767       2.38855947        1       0.00000000       0.00196794      -0.00398682      -0.16751261
Pt       5.51654314       3.18497767       2.38855952        1       0.00000000       0.00000251      -0.00445025      -0.15346661
Pt       8.27481457       3.18497770       2.38855940        1       0.00000000      -0.00197009      -0.00398561      -0.16751304
Pt      11.03308614       3.18497759       2.38855939        1       0.00000000       0.00000224      -0.02208032      -0.15445969
Pt       4.13740736       5.57371086       2.38855937        1       0.00000000      -0.00123805      -0.00135816      -0.17055695
Pt       6.89567888       5.57371105       2.38855956        1       0.00000000       0.00123645      -0.00136158      -0.17055857
Pt       9.65395045       5.57371094       2.38855956        1       0.00000000       0.00174490       0.00357553      -0.16058458
Pt      12.41222194       5.57371108       2.38855958        1       0.00000000      -0.00174683       0.00357566      -0.16058555
Pt       5.51654310       7.96244423       2.38855960        1       0.00000000       0.00000135       0.01553354      -0.14674433
Pt       8.27481475       7.96244428       2.38855962        1       0.00000000      -0.01213868       0.02000527      -0.13230754
Pt      11.03308616       7.96244430       2.38855961        1       0.00000000       0.00000315       0.00919747      -0.14351225
Pt      13.79135772       7.96244428       2.38855965        1       0.00000000       0.01213703       0.02001106      -0.13230528
Pt       0.00000049       1.58433052       4.73994281        2       0.00000000       0.00000250      -0.00982921       0.00658484
Pt       2.76360746       1.59314643       4.72898990        2       0.00000000      -0.00122448       0.00061501       0.00780903
Pt       5.51654133       1.59206662       4.73077892        2       0.00000000       0.00001657      -0.00704309       0.00106968
Pt       8.26947946       1.59314863       4.72899019        2       0.00000000       0.00120612       0.00059630       0.00780804
Pt       1.37767378       3.98083836       4.72388629        2       0.00000000       0.00951330       0.00883009       0.00732394
Pt       4.13714686       3.97942787       4.72825669        2       0.00000000      -0.00654336       0.00555677       0.00289683
Pt       6.89593815       3.97942836       4.72825720        2       0.00000000       0.00654934       0.00554820       0.00289755
Pt       9.65541268       3.98083836       4.72388589        2       0.00000000      -0.00951896       0.00883378       0.00733066
Pt       2.75726425       6.37196305       4.72432564        2       0.00000000      -0.00341649      -0.01371647       0.00602010
Pt       5.51654241       6.36376080       4.72352785        2       0.00000000      -0.00000212       0.00229419       0.01242320
Pt       8.27582198       6.37196196       4.72432544        2       0.00000000       0.00342942      -0.01371818       0.00602259
Pt      11.03308721       6.37352551       4.72752661        2       0.00000000      -0.00001126      -0.00294853       0.00323628
Pt       4.14339699       8.76330296       4.74344833        2       0.00000000       0.00915800       0.00427273       0.00122316
Pt       6.88968938       8.76330145       4.74344837        2       0.00000000      -0.00917043       0.00428562       0.00123218
Pt       9.65145282       8.76031252       4.73314643        2       0.00000000       0.01268608       0.00133236       0.00212009
Pt      12.41471852       8.76031217       4.73314580        2       0.00000000      -0.01267716       0.00135090       0.00211975
Pt       0.00000043      -0.00012790       7.07833901        3       0.00000000      -0.00002397      -0.00005085       0.02820175
Pt       2.76386872       0.00193039       7.10080302        3       0.00000000       0.00375211       0.00033435       0.01224470
Pt       5.51654284       0.00022717       7.09165900        3       0.00000000      -0.00000090      -0.00027800      -0.00029606
Pt       8.26921777       0.00193041       7.10080324        3       0.00000000      -0.00375908       0.00033682       0.01221430
Pt       1.38873973       2.40200979       7.07421822        3       0.00000000       0.00395783       0.00265609       0.02167094
Pt       4.13832395       2.38722511       7.08878949        3       0.00000000       0.00274310       0.00270432       0.00496328
Pt       6.89476161       2.38722426       7.08878868        3       0.00000000      -0.00273641       0.00271084       0.00496247
Pt       9.64434756       2.40201059       7.07421925        3       0.00000000      -0.00396341       0.00265297       0.02165735
Pt       2.75810405       4.77736960       7.08215072        3       0.00000000       0.00023034      -0.00022141       0.01081029
Pt       5.51654299       4.77307804       7.08358253        3       0.00000000       0.00000294       0.00010583       0.01059726
Pt       8.27498258       4.77737018       7.08215103        3       0.00000000      -0.00023397      -0.00022771       0.01080716
Pt      11.03308592       4.77999971       7.07968285        3       0.00000000       0.00000377      -0.00103651       0.01450595
Pt       4.13130233       7.15021258       7.07297170        3       0.00000000      -0.00346075      -0.00231822       0.02075818
Pt       6.90178432       7.15021342       7.07297031        3       0.00000000       0.00345476      -0.00232073       0.02077389
Pt       9.65372904       7.16660575       7.08525011        3       0.00000000       0.00314188      -0.00211637       0.00725028
Pt      12.41244287       7.16660837       7.08524773        3       0.00000000      -0.00314317      -0.00213285       0.00726435
O       -0.00003772      -0.01566505       9.36133499        0       0.00000000       0.00426642      -0.04253546      -0.01334298
H        0.80444585       0.00800231       9.91360103        0       0.00000000      -0.00191891       0.02137839       0.04139268
H       -0.80440819       0.00800121       9.91357560        0       0.00000000      -0.00231060       0.02150559       0.04431129
