  34  34   1   0
  0.2722611E+02  0.5536700E-09  0.5747300E-09  0.2909039E-08  0.1500000E-15
  1.000000000000000E-004
  CAR 
 unknown system                          
      6.89539180    -45.93398656  301      1.41887336      1.00000000
    -45.934  0.0000E+00  0.0000E+00  0.0000E+00  0.0000E+00
    -45.758  0.0000E+00  0.0000E+00  0.0000E+00  0.0000E+00
    -45.582  0.0000E+00  0.0000E+00  0.0000E+00  0.0000E+00
    -45.406  0.0000E+00  0.0000E+00  0.0000E+00  0.0000E+00
    -45.230  0.0000E+00  0.0000E+00  0.0000E+00  0.0000E+00
    -45.053  0.0000E+00  0.0000E+00  0.0000E+00  0.0000E+00
    -44.877  0.0000E+00  0.0000E+00  0.0000E+00  0.0000E+00
    -44.701  0.1261E-15  0.0000E+00  0.2220E-16  0.0000E+00
    -44.525  0.2496E-11  0.0000E+00  0.4396E-12  0.0000E+00
    -44.349  0.9351E-08  0.0000E+00  0.1647E-08  0.0000E+00
    -44.173  0.8034E-05  0.0000E+00  0.1416E-05  0.0000E+00
    -43.997  0.1647E-02  0.3657E-14  0.2915E-03  0.6439E-15
    -43.821  0.8512E-01  0.3645E-10  0.1528E-01  0.6419E-11
    -43.645  0.1184E+01  0.7931E-07  0.2238E+00  0.1397E-07
    -43.469  0.4708E+01  0.3828E-04  0.1053E+01  0.6755E-05
    -43.293  0.5537E+01  0.4184E-02  0.2028E+01  0.7436E-03
    -43.116  0.1920E+01  0.1071E+00  0.2366E+01  0.1961E-01
    -42.940  0.2064E+00  0.6857E+00  0.2402E+01  0.1404E+00
    -42.764  0.2708E+00  0.1348E+01  0.2450E+01  0.3778E+00
    -42.588  0.1101E+01  0.1561E+01  0.2644E+01  0.6526E+00
    -42.412  0.1878E+01  0.1654E+01  0.2975E+01  0.9440E+00
    -42.236  0.2141E+01  0.1181E+01  0.3352E+01  0.1152E+01
    -42.060  0.1743E+01  0.7862E+00  0.3659E+01  0.1290E+01
    -41.884  0.2118E+01  0.1454E+01  0.4032E+01  0.1547E+01
    -41.708  0.1749E+01  0.1669E+01  0.4340E+01  0.1840E+01
    -41.532  0.8841E+00  0.1059E+01  0.4495E+01  0.2027E+01
    -41.355  0.1079E+01  0.1061E+01  0.4685E+01  0.2214E+01
    -41.179  0.5710E+00  0.8585E+00  0.4786E+01  0.2365E+01
    -41.003  0.7749E-01  0.3903E+00  0.4800E+01  0.2434E+01
    -40.827  0.2546E-02  0.1749E+01  0.4800E+01  0.2742E+01
    -40.651  0.1945E-04  0.5069E+01  0.4800E+01  0.3634E+01
    -40.475  0.3355E-07  0.4963E+01  0.4800E+01  0.4508E+01
    -40.299  0.1281E-10  0.1523E+01  0.4800E+01  0.4776E+01
    -40.123  0.1009E-14  0.1319E+00  0.4800E+01  0.4799E+01
    -39.947  0.0000E+00  0.2930E-02  0.4800E+01  0.4800E+01
    -39.771  0.0000E+00  0.1560E-04  0.4800E+01  0.4800E+01
    -39.594  0.0000E+00  0.1904E-07  0.4800E+01  0.4800E+01
    -39.418  0.0000E+00  0.5195E-11  0.4800E+01  0.4800E+01
    -39.242  0.0000E+00  0.0000E+00  0.4800E+01  0.4800E+01
    -39.066  0.0000E+00  0.0000E+00  0.4800E+01  0.4800E+01
    -38.890  0.0000E+00  0.0000E+00  0.4800E+01  0.4800E+01
    -38.714  0.0000E+00  0.0000E+00  0.4800E+01  0.4800E+01
    -38.538  0.0000E+00  0.0000E+00  0.4800E+01  0.4800E+01
    -38.362  0.0000E+00  0.0000E+00  0.4800E+01  0.4800E+01
    -38.186  0.0000E+00  0.0000E+00  0.4800E+01  0.4800E+01
    -38.010  0.0000E+00  0.0000E+00  0.4800E+01  0.4800E+01
    -37.833  0.0000E+00  0.0000E+00  0.4800E+01  0.4800E+01
    -37.657  0.0000E+00  0.0000E+00  0.4800E+01  0.4800E+01
    -37.481  0.0000E+00  0.0000E+00  0.4800E+01  0.4800E+01
    -37.305  0.0000E+00  0.0000E+00  0.4800E+01  0.4800E+01
    -37.129  0.0000E+00  0.0000E+00  0.4800E+01  0.4800E+01
    -36.953  0.0000E+00  0.0000E+00  0.4800E+01  0.4800E+01
    -36.777  0.0000E+00  0.0000E+00  0.4800E+01  0.4800E+01
    -36.601  0.0000E+00  0.0000E+00  0.4800E+01  0.4800E+01
    -36.425  0.0000E+00  0.0000E+00  0.4800E+01  0.4800E+01
    -36.249  0.0000E+00  0.0000E+00  0.4800E+01  0.4800E+01
    -36.073  0.0000E+00  0.0000E+00  0.4800E+01  0.4800E+01
    -35.896  0.0000E+00  0.0000E+00  0.4800E+01  0.4800E+01
    -35.720  0.0000E+00  0.0000E+00  0.4800E+01  0.4800E+01
    -35.544  0.0000E+00  0.0000E+00  0.4800E+01  0.4800E+01
    -35.368  0.0000E+00  0.0000E+00  0.4800E+01  0.4800E+01
    -35.192  0.0000E+00  0.0000E+00  0.4800E+01  0.4800E+01
    -35.016  0.0000E+00  0.0000E+00  0.4800E+01  0.4800E+01
    -34.840  0.0000E+00  0.0000E+00  0.4800E+01  0.4800E+01
    -34.664  0.0000E+00  0.0000E+00  0.4800E+01  0.4800E+01
    -34.488  0.0000E+00  0.0000E+00  0.4800E+01  0.4800E+01
    -34.312  0.0000E+00  0.0000E+00  0.4800E+01  0.4800E+01
    -34.135  0.0000E+00  0.0000E+00  0.4800E+01  0.4800E+01
    -33.959  0.0000E+00  0.0000E+00  0.4800E+01  0.4800E+01
    -33.783  0.0000E+00  0.0000E+00  0.4800E+01  0.4800E+01
    -33.607  0.0000E+00  0.0000E+00  0.4800E+01  0.4800E+01
    -33.431  0.0000E+00  0.0000E+00  0.4800E+01  0.4800E+01
    -33.255  0.0000E+00  0.0000E+00  0.4800E+01  0.4800E+01
    -33.079  0.0000E+00  0.0000E+00  0.4800E+01  0.4800E+01
    -32.903  0.0000E+00  0.0000E+00  0.4800E+01  0.4800E+01
    -32.727  0.0000E+00  0.0000E+00  0.4800E+01  0.4800E+01
    -32.551  0.0000E+00  0.0000E+00  0.4800E+01  0.4800E+01
    -32.374  0.0000E+00  0.0000E+00  0.4800E+01  0.4800E+01
    -32.198  0.0000E+00  0.0000E+00  0.4800E+01  0.4800E+01
    -32.022  0.6305E-16  0.0000E+00  0.4800E+01  0.4800E+01
    -31.846  0.6940E-12  0.4842E-12  0.4800E+01  0.4800E+01
    -31.670  0.2683E-08  0.1988E-08  0.4800E+01  0.4800E+01
    -31.494  0.2306E-05  0.1814E-05  0.4800E+01  0.4800E+01
    -31.318  0.4527E-03  0.3774E-03  0.4800E+01  0.4800E+01
    -31.142  0.2128E-01  0.1877E-01  0.4804E+01  0.4803E+01
    -30.966  0.2578E+00  0.2396E+00  0.4849E+01  0.4846E+01
    -30.790  0.9016E+00  0.8759E+00  0.5008E+01  0.5000E+01
    -30.613  0.1219E+01  0.1209E+01  0.5223E+01  0.5213E+01
    -30.437  0.1332E+01  0.1322E+01  0.5457E+01  0.5445E+01
    -30.261  0.1445E+01  0.1459E+01  0.5712E+01  0.5702E+01
    -30.085  0.1152E+01  0.1178E+01  0.5914E+01  0.5910E+01
    -29.909  0.4321E+00  0.4536E+00  0.5991E+01  0.5990E+01
    -29.733  0.5196E-01  0.5655E-01  0.6000E+01  0.6000E+01
    -29.557  0.1679E-02  0.1904E-02  0.6000E+01  0.6000E+01
    -29.381  0.1327E-04  0.1571E-04  0.6000E+01  0.6000E+01
    -29.205  0.2424E-07  0.3001E-07  0.6000E+01  0.6000E+01
    -29.029  0.9904E-11  0.1284E-10  0.6000E+01  0.6000E+01
    -28.852  0.8826E-15  0.1261E-14  0.6000E+01  0.6000E+01
    -28.676  0.0000E+00  0.0000E+00  0.6000E+01  0.6000E+01
    -28.500  0.0000E+00  0.0000E+00  0.6000E+01  0.6000E+01
    -28.324  0.0000E+00  0.0000E+00  0.6000E+01  0.6000E+01
    -28.148  0.0000E+00  0.0000E+00  0.6000E+01  0.6000E+01
    -27.972  0.0000E+00  0.0000E+00  0.6000E+01  0.6000E+01
    -27.796  0.0000E+00  0.0000E+00  0.6000E+01  0.6000E+01
    -27.620  0.0000E+00  0.0000E+00  0.6000E+01  0.6000E+01
    -27.444  0.0000E+00  0.0000E+00  0.6000E+01  0.6000E+01
    -27.268  0.0000E+00  0.0000E+00  0.6000E+01  0.6000E+01
    -27.092  0.0000E+00  0.0000E+00  0.6000E+01  0.6000E+01
    -26.915  0.0000E+00  0.0000E+00  0.6000E+01  0.6000E+01
    -26.739  0.0000E+00  0.0000E+00  0.6000E+01  0.6000E+01
    -26.563  0.0000E+00  0.0000E+00  0.6000E+01  0.6000E+01
    -26.387  0.0000E+00  0.0000E+00  0.6000E+01  0.6000E+01
    -26.211  0.0000E+00  0.0000E+00  0.6000E+01  0.6000E+01
    -26.035  0.0000E+00  0.0000E+00  0.6000E+01  0.6000E+01
    -25.859  0.0000E+00  0.0000E+00  0.6000E+01  0.6000E+01
    -25.683  0.0000E+00  0.0000E+00  0.6000E+01  0.6000E+01
    -25.507  0.0000E+00  0.0000E+00  0.6000E+01  0.6000E+01
    -25.331  0.0000E+00  0.0000E+00  0.6000E+01  0.6000E+01
    -25.154  0.0000E+00  0.0000E+00  0.6000E+01  0.6000E+01
    -24.978  0.0000E+00  0.0000E+00  0.6000E+01  0.6000E+01
    -24.802  0.0000E+00  0.0000E+00  0.6000E+01  0.6000E+01
    -24.626  0.0000E+00  0.0000E+00  0.6000E+01  0.6000E+01
    -24.450  0.0000E+00  0.0000E+00  0.6000E+01  0.6000E+01
    -24.274  0.0000E+00  0.0000E+00  0.6000E+01  0.6000E+01
    -24.098  0.0000E+00  0.0000E+00  0.6000E+01  0.6000E+01
    -23.922  0.0000E+00  0.0000E+00  0.6000E+01  0.6000E+01
    -23.746  0.0000E+00  0.0000E+00  0.6000E+01  0.6000E+01
    -23.570  0.0000E+00  0.0000E+00  0.6000E+01  0.6000E+01
    -23.393  0.0000E+00  0.0000E+00  0.6000E+01  0.6000E+01
    -23.217  0.0000E+00  0.0000E+00  0.6000E+01  0.6000E+01
    -23.041  0.0000E+00  0.0000E+00  0.6000E+01  0.6000E+01
    -22.865  0.0000E+00  0.0000E+00  0.6000E+01  0.6000E+01
    -22.689  0.0000E+00  0.0000E+00  0.6000E+01  0.6000E+01
    -22.513  0.0000E+00  0.0000E+00  0.6000E+01  0.6000E+01
    -22.337  0.0000E+00  0.0000E+00  0.6000E+01  0.6000E+01
    -22.161  0.0000E+00  0.0000E+00  0.6000E+01  0.6000E+01
    -21.985  0.0000E+00  0.0000E+00  0.6000E+01  0.6000E+01
    -21.809  0.0000E+00  0.0000E+00  0.6000E+01  0.6000E+01
    -21.632  0.0000E+00  0.0000E+00  0.6000E+01  0.6000E+01
    -21.456  0.0000E+00  0.0000E+00  0.6000E+01  0.6000E+01
    -21.280  0.0000E+00  0.0000E+00  0.6000E+01  0.6000E+01
    -21.104  0.0000E+00  0.0000E+00  0.6000E+01  0.6000E+01
    -20.928  0.0000E+00  0.0000E+00  0.6000E+01  0.6000E+01
    -20.752  0.0000E+00  0.0000E+00  0.6000E+01  0.6000E+01
    -20.576  0.0000E+00  0.0000E+00  0.6000E+01  0.6000E+01
    -20.400  0.0000E+00  0.0000E+00  0.6000E+01  0.6000E+01
    -20.224  0.0000E+00  0.0000E+00  0.6000E+01  0.6000E+01
    -20.048  0.0000E+00  0.0000E+00  0.6000E+01  0.6000E+01
    -19.871  0.0000E+00  0.0000E+00  0.6000E+01  0.6000E+01
    -19.695  0.0000E+00  0.0000E+00  0.6000E+01  0.6000E+01
    -19.519  0.0000E+00  0.0000E+00  0.6000E+01  0.6000E+01
    -19.343  0.3436E-13  0.3215E-14  0.6000E+01  0.6000E+01
    -19.167  0.2162E-09  0.2920E-10  0.6000E+01  0.6000E+01
    -18.991  0.2986E-06  0.5840E-07  0.6000E+01  0.6000E+01
    -18.815  0.9193E-04  0.2592E-04  0.6000E+01  0.6000E+01
    -18.639  0.6458E-02  0.2608E-02  0.6001E+01  0.6000E+01
    -18.463  0.1072E+00  0.6142E-01  0.6020E+01  0.6011E+01
    -18.287  0.4429E+00  0.3554E+00  0.6098E+01  0.6074E+01
    -18.111  0.5869E+00  0.6050E+00  0.6201E+01  0.6180E+01
    -17.934  0.1017E+01  0.9292E+00  0.6380E+01  0.6344E+01
    -17.758  0.1875E+01  0.1750E+01  0.6710E+01  0.6652E+01
    -17.582  0.2327E+01  0.2159E+01  0.7120E+01  0.7032E+01
    -17.406  0.2722E+01  0.2720E+01  0.7600E+01  0.7511E+01
    -17.230  0.2217E+01  0.2356E+01  0.7990E+01  0.7926E+01
    -17.054  0.2648E+01  0.2504E+01  0.8456E+01  0.8367E+01
    -16.878  0.2980E+01  0.2960E+01  0.8981E+01  0.8888E+01
    -16.702  0.1839E+01  0.2060E+01  0.9305E+01  0.9251E+01
    -16.526  0.8212E+00  0.1018E+01  0.9449E+01  0.9430E+01
    -16.350  0.6329E+00  0.6573E+00  0.9561E+01  0.9546E+01
    -16.173  0.6564E+00  0.4892E+00  0.9676E+01  0.9632E+01
    -15.997  0.9900E+00  0.8157E+00  0.9851E+01  0.9776E+01
    -15.821  0.6902E+00  0.9081E+00  0.9972E+01  0.9936E+01
    -15.645  0.1480E+00  0.3288E+00  0.9998E+01  0.9994E+01
    -15.469  0.8769E-02  0.3458E-01  0.1000E+02  0.1000E+02
    -15.293  0.1311E-03  0.9522E-03  0.1000E+02  0.1000E+02
    -15.117  0.1165E-03  0.8935E-04  0.1000E+02  0.1000E+02
    -14.941  0.9462E-02  0.7400E-02  0.1000E+02  0.1000E+02
    -14.765  0.1868E+00  0.1588E+00  0.1003E+02  0.1003E+02
    -14.589  0.9848E+00  0.9009E+00  0.1021E+02  0.1019E+02
    -14.412  0.1774E+01  0.1706E+01  0.1052E+02  0.1049E+02
    -14.236  0.2114E+01  0.2060E+01  0.1089E+02  0.1085E+02
    -14.060  0.2719E+01  0.2687E+01  0.1137E+02  0.1132E+02
    -13.884  0.3141E+01  0.3158E+01  0.1192E+02  0.1188E+02
    -13.708  0.2600E+01  0.2656E+01  0.1238E+02  0.1235E+02
    -13.532  0.2046E+01  0.2074E+01  0.1274E+02  0.1271E+02
    -13.356  0.1744E+01  0.1793E+01  0.1305E+02  0.1303E+02
    -13.180  0.1307E+01  0.1349E+01  0.1328E+02  0.1327E+02
    -13.004  0.9382E+00  0.9594E+00  0.1345E+02  0.1344E+02
    -12.828  0.6420E+00  0.6684E+00  0.1356E+02  0.1355E+02
    -12.651  0.2143E+00  0.2389E+00  0.1360E+02  0.1360E+02
    -12.475  0.2073E-01  0.2527E-01  0.1360E+02  0.1360E+02
    -12.299  0.4928E-03  0.6609E-03  0.1360E+02  0.1360E+02
    -12.123  0.2713E-05  0.4015E-05  0.1360E+02  0.1360E+02
    -11.947  0.3355E-08  0.5487E-08  0.1360E+02  0.1360E+02
    -11.771  0.9153E-12  0.1656E-11  0.1360E+02  0.1360E+02
    -11.595  0.0000E+00  0.1261E-15  0.1360E+02  0.1360E+02
    -11.419  0.0000E+00  0.0000E+00  0.1360E+02  0.1360E+02
    -11.243  0.0000E+00  0.0000E+00  0.1360E+02  0.1360E+02
    -11.067  0.0000E+00  0.0000E+00  0.1360E+02  0.1360E+02
    -10.890  0.0000E+00  0.0000E+00  0.1360E+02  0.1360E+02
    -10.714  0.0000E+00  0.0000E+00  0.1360E+02  0.1360E+02
    -10.538  0.0000E+00  0.0000E+00  0.1360E+02  0.1360E+02
    -10.362  0.0000E+00  0.0000E+00  0.1360E+02  0.1360E+02
    -10.186  0.0000E+00  0.0000E+00  0.1360E+02  0.1360E+02
    -10.010  0.0000E+00  0.0000E+00  0.1360E+02  0.1360E+02
     -9.834  0.0000E+00  0.0000E+00  0.1360E+02  0.1360E+02
     -9.658  0.0000E+00  0.0000E+00  0.1360E+02  0.1360E+02
     -9.482  0.0000E+00  0.0000E+00  0.1360E+02  0.1360E+02
     -9.306  0.0000E+00  0.0000E+00  0.1360E+02  0.1360E+02
     -9.130  0.0000E+00  0.0000E+00  0.1360E+02  0.1360E+02
     -8.953  0.0000E+00  0.0000E+00  0.1360E+02  0.1360E+02
     -8.777  0.0000E+00  0.0000E+00  0.1360E+02  0.1360E+02
     -8.601  0.0000E+00  0.0000E+00  0.1360E+02  0.1360E+02
     -8.425  0.0000E+00  0.0000E+00  0.1360E+02  0.1360E+02
     -8.249  0.0000E+00  0.0000E+00  0.1360E+02  0.1360E+02
     -8.073  0.0000E+00  0.0000E+00  0.1360E+02  0.1360E+02
     -7.897  0.0000E+00  0.0000E+00  0.1360E+02  0.1360E+02
     -7.721  0.0000E+00  0.0000E+00  0.1360E+02  0.1360E+02
     -7.545  0.0000E+00  0.0000E+00  0.1360E+02  0.1360E+02
     -7.369  0.0000E+00  0.0000E+00  0.1360E+02  0.1360E+02
     -7.192  0.0000E+00  0.0000E+00  0.1360E+02  0.1360E+02
     -7.016  0.0000E+00  0.0000E+00  0.1360E+02  0.1360E+02
     -6.840  0.0000E+00  0.0000E+00  0.1360E+02  0.1360E+02
     -6.664  0.0000E+00  0.0000E+00  0.1360E+02  0.1360E+02
     -6.488  0.6683E-14  0.0000E+00  0.1360E+02  0.1360E+02
     -6.312  0.5441E-10  0.2522E-15  0.1360E+02  0.1360E+02
     -6.136  0.9715E-07  0.3631E-11  0.1360E+02  0.1360E+02
     -5.960  0.3855E-04  0.1051E-07  0.1360E+02  0.1360E+02
     -5.784  0.3474E-02  0.6723E-05  0.1360E+02  0.1360E+02
     -5.608  0.7351E-01  0.9692E-03  0.1361E+02  0.1360E+02
     -5.431  0.3840E+00  0.3241E-01  0.1368E+02  0.1361E+02
     -5.255  0.5849E+00  0.2622E+00  0.1378E+02  0.1365E+02
     -5.079  0.6747E+00  0.5577E+00  0.1390E+02  0.1375E+02
     -4.903  0.1010E+01  0.5427E+00  0.1408E+02  0.1385E+02
     -4.727  0.1144E+01  0.8260E+00  0.1428E+02  0.1399E+02
     -4.551  0.1894E+01  0.1111E+01  0.1462E+02  0.1419E+02
     -4.375  0.2378E+01  0.1716E+01  0.1503E+02  0.1449E+02
     -4.199  0.1890E+01  0.2167E+01  0.1537E+02  0.1487E+02
     -4.023  0.2345E+01  0.1801E+01  0.1578E+02  0.1519E+02
     -3.847  0.3237E+01  0.2392E+01  0.1635E+02  0.1561E+02
     -3.670  0.3816E+01  0.3603E+01  0.1702E+02  0.1624E+02
     -3.494  0.3794E+01  0.4266E+01  0.1769E+02  0.1699E+02
     -3.318  0.2951E+01  0.3488E+01  0.1821E+02  0.1761E+02
     -3.142  0.2505E+01  0.3114E+01  0.1865E+02  0.1816E+02
     -2.966  0.3400E+01  0.3487E+01  0.1925E+02  0.1877E+02
     -2.790  0.3790E+01  0.3966E+01  0.1992E+02  0.1947E+02
     -2.614  0.3199E+01  0.3535E+01  0.2048E+02  0.2009E+02
     -2.438  0.2428E+01  0.2863E+01  0.2091E+02  0.2060E+02
     -2.262  0.2049E+01  0.2089E+01  0.2127E+02  0.2096E+02
     -2.086  0.2368E+01  0.2439E+01  0.2169E+02  0.2139E+02
     -1.910  0.2686E+01  0.2815E+01  0.2216E+02  0.2189E+02
     -1.733  0.3187E+01  0.2944E+01  0.2272E+02  0.2241E+02
     -1.557  0.3512E+01  0.3458E+01  0.2334E+02  0.2302E+02
     -1.381  0.3345E+01  0.3661E+01  0.2393E+02  0.2366E+02
     -1.205  0.2246E+01  0.2725E+01  0.2432E+02  0.2414E+02
     -1.029  0.2107E+01  0.2188E+01  0.2469E+02  0.2453E+02
     -0.853  0.1635E+01  0.2058E+01  0.2498E+02  0.2489E+02
     -0.677  0.9624E+00  0.1265E+01  0.2515E+02  0.2511E+02
     -0.501  0.1011E+01  0.8053E+00  0.2533E+02  0.2525E+02
     -0.325  0.1609E+01  0.1001E+01  0.2561E+02  0.2543E+02
     -0.149  0.1923E+01  0.7647E+00  0.2595E+02  0.2556E+02
      0.028  0.1504E+01  0.1873E+00  0.2622E+02  0.2560E+02
      0.204  0.8957E+00  0.4244E-01  0.2637E+02  0.2561E+02
      0.380  0.9291E+00  0.2610E+00  0.2654E+02  0.2565E+02
      0.556  0.1903E+01  0.7131E+00  0.2687E+02  0.2578E+02
      0.732  0.2890E+01  0.1264E+01  0.2738E+02  0.2600E+02
      0.908  0.3434E+01  0.2156E+01  0.2799E+02  0.2638E+02
      1.084  0.3249E+01  0.2185E+01  0.2856E+02  0.2676E+02
      1.260  0.2634E+01  0.1175E+01  0.2902E+02  0.2697E+02
      1.436  0.1859E+01  0.6779E+00  0.2935E+02  0.2709E+02
      1.612  0.1414E+01  0.8371E+00  0.2960E+02  0.2724E+02
      1.789  0.1643E+01  0.1065E+01  0.2989E+02  0.2743E+02
      1.965  0.2531E+01  0.1690E+01  0.3033E+02  0.2772E+02
      2.141  0.2324E+01  0.2365E+01  0.3074E+02  0.2814E+02
      2.317  0.2361E+01  0.2852E+01  0.3116E+02  0.2864E+02
      2.493  0.2656E+01  0.3174E+01  0.3163E+02  0.2920E+02
      2.669  0.1963E+01  0.2880E+01  0.3197E+02  0.2971E+02
      2.845  0.1309E+01  0.2106E+01  0.3220E+02  0.3008E+02
      3.021  0.1015E+01  0.1650E+01  0.3238E+02  0.3037E+02
      3.197  0.1015E+01  0.2182E+01  0.3256E+02  0.3075E+02
      3.373  0.9413E+00  0.2323E+01  0.3273E+02  0.3116E+02
      3.550  0.8616E+00  0.2319E+01  0.3288E+02  0.3157E+02
      3.726  0.6051E+00  0.2714E+01  0.3298E+02  0.3205E+02
      3.902  0.8732E+00  0.2764E+01  0.3314E+02  0.3254E+02
      4.078  0.3118E+01  0.3355E+01  0.3369E+02  0.3313E+02
      4.254  0.5627E+01  0.5255E+01  0.3468E+02  0.3405E+02
      4.430  0.5217E+01  0.6446E+01  0.3560E+02  0.3519E+02
      4.606  0.2028E+01  0.3776E+01  0.3595E+02  0.3585E+02
      4.782  0.2508E+00  0.7899E+00  0.3600E+02  0.3599E+02
      4.958  0.8362E-02  0.5152E-01  0.3600E+02  0.3600E+02
      5.134  0.6866E-04  0.9509E-03  0.3600E+02  0.3600E+02
      5.311  0.1317E-06  0.4557E-05  0.3600E+02  0.3600E+02
      5.487  0.5718E-10  0.5296E-08  0.3600E+02  0.3600E+02
      5.663  0.5674E-14  0.1424E-11  0.3600E+02  0.3600E+02
      5.839  0.0000E+00  0.0000E+00  0.3600E+02  0.3600E+02
      6.015  0.0000E+00  0.0000E+00  0.3600E+02  0.3600E+02
      6.191  0.0000E+00  0.0000E+00  0.3600E+02  0.3600E+02
      6.367  0.0000E+00  0.0000E+00  0.3600E+02  0.3600E+02
      6.543  0.0000E+00  0.0000E+00  0.3600E+02  0.3600E+02
      6.719  0.0000E+00  0.0000E+00  0.3600E+02  0.3600E+02
      6.895  0.0000E+00  0.0000E+00  0.3600E+02  0.3600E+02
      6.89539180    -45.93398656  301      1.41887336      1.00000000
    -45.934  0.0000E+00  0.0000E+00  0.0000E+00  0.0000E+00  0.0000E+00  0.0000E+00  0.0000E+00  0.0000E+00
    -45.758  0.0000E+00  0.0000E+00  0.0000E+00  0.0000E+00  0.0000E+00  0.0000E+00  0.0000E+00  0.0000E+00
    -45.582  0.0000E+00  0.0000E+00  0.0000E+00  0.0000E+00  0.0000E+00  0.0000E+00  0.0000E+00  0.0000E+00
    -45.406  0.0000E+00  0.0000E+00  0.0000E+00  0.0000E+00  0.0000E+00  0.0000E+00  0.0000E+00  0.0000E+00
    -45.230  0.0000E+00  0.0000E+00  0.0000E+00  0.0000E+00  0.0000E+00  0.0000E+00  0.0000E+00  0.0000E+00
    -45.053  0.0000E+00  0.0000E+00  0.0000E+00  0.0000E+00  0.0000E+00  0.0000E+00  0.0000E+00  0.0000E+00
    -44.877  0.0000E+00  0.0000E+00  0.0000E+00  0.0000E+00  0.0000E+00  0.0000E+00  0.0000E+00  0.0000E+00
    -44.701  0.1768E-25  0.0000E+00  0.7548E-23  0.0000E+00  0.1206E-24  0.0000E+00  0.0000E+00  0.0000E+00
    -44.525  0.1323E-20  0.0000E+00  0.2669E-18  0.0000E+00  0.3989E-20  0.0000E+00  0.0000E+00  0.0000E+00
    -44.349  0.8479E-17  0.0000E+00  0.1436E-14  0.0000E+00  0.2092E-16  0.0000E+00  0.0000E+00  0.0000E+00
    -44.173  0.1349E-13  0.0000E+00  0.2013E-11  0.0000E+00  0.2834E-13  0.0000E+00  0.0000E+00  0.0000E+00
    -43.997  0.5243E-11  0.2423E-24  0.7267E-09  0.1985E-22  0.9907E-11  0.3368E-24  0.0000E+00  0.0000E+00
    -43.821  0.4921E-09  0.2469E-20  0.6577E-07  0.2019E-18  0.8755E-09  0.3406E-20  0.0000E+00  0.0000E+00
    -43.645  0.1124E-07  0.5456E-17  0.1478E-05  0.4449E-15  0.1937E-07  0.7495E-17  0.0000E+00  0.0000E+00
    -43.469  0.6403E-07  0.2673E-14  0.8359E-05  0.2174E-12  0.1085E-06  0.3658E-14  0.0000E+00  0.0000E+00
    -43.293  0.9353E-07  0.2965E-12  0.1217E-04  0.2405E-10  0.1570E-06  0.4041E-12  0.0000E+00  0.0000E+00
    -43.116  0.3521E-07  0.7712E-11  0.4574E-05  0.6252E-09  0.5878E-07  0.1046E-10  0.0000E+00  0.0000E+00
    -42.940  0.3467E-08  0.5061E-10  0.2717E-05  0.4171E-08  0.5576E-08  0.6804E-10  0.0000E+00  0.0000E+00
    -42.764  0.3954E-07  0.1092E-09  0.6362E-03  0.3437E-07  0.1300E-07  0.1397E-09  0.0000E+00  0.0000E+00
    -42.588  0.2511E-05  0.1395E-08  0.4050E-01  0.1843E-04  0.8190E-06  0.3387E-09  0.0000E+00  0.0000E+00
    -42.412  0.3791E-04  0.2122E-06  0.6115E+00  0.3099E-02  0.1236E-04  0.2998E-07  0.0000E+00  0.0000E+00
    -42.236  0.1441E-03  0.8232E-05  0.2332E+01  0.1218E+00  0.4665E-04  0.1181E-05  0.0000E+00  0.0000E+00
    -42.060  0.1749E-03  0.7680E-04  0.2910E+01  0.1206E+01  0.5221E-04  0.1199E-04  0.0000E+00  0.0000E+00
    -41.884  0.1646E-03  0.1799E-03  0.2941E+01  0.3556E+01  0.3814E-04  0.3834E-04  0.0000E+00  0.0000E+00
    -41.708  0.1133E-03  0.1122E-03  0.2158E+01  0.4142E+01  0.2483E-04  0.5126E-04  0.0000E+00  0.0000E+00
    -41.532  0.4840E-04  0.6015E-04  0.1657E+01  0.2627E+01  0.1841E-04  0.3907E-04  0.0000E+00  0.0000E+00
    -41.355  0.5571E-04  0.1511E-03  0.2647E+01  0.2632E+01  0.2915E-04  0.4900E-04  0.0000E+00  0.0000E+00
    -41.179  0.2945E-04  0.1359E-03  0.1417E+01  0.2114E+01  0.1560E-04  0.4063E-04  0.0000E+00  0.0000E+00
    -41.003  0.3998E-05  0.3123E-04  0.1924E+00  0.4835E+00  0.2116E-05  0.9319E-05  0.0000E+00  0.0000E+00
    -40.827  0.1314E-06  0.1813E-05  0.6321E-02  0.2736E-01  0.6952E-07  0.6540E-06  0.0000E+00  0.0000E+00
    -40.651  0.1004E-08  0.1325E-06  0.4830E-04  0.4037E-03  0.5309E-09  0.3011E-06  0.0000E+00  0.0000E+00
    -40.475  0.1731E-11  0.7380E-07  0.8329E-07  0.2683E-04  0.9152E-12  0.1985E-06  0.0000E+00  0.0000E+00
    -40.299  0.6609E-15  0.1393E-07  0.3179E-10  0.4799E-05  0.3492E-15  0.3749E-07  0.0000E+00  0.0000E+00
    -40.123  0.5203E-19  0.6857E-09  0.2504E-14  0.2346E-06  0.2757E-19  0.1849E-08  0.0000E+00  0.0000E+00
    -39.947  0.0000E+00  0.8258E-11  0.0000E+00  0.2812E-08  0.0000E+00  0.2234E-10  0.0000E+00  0.0000E+00
    -39.771  0.0000E+00  0.2343E-13  0.0000E+00  0.7909E-11  0.0000E+00  0.6347E-13  0.0000E+00  0.0000E+00
    -39.594  0.0000E+00  0.1548E-16  0.0000E+00  0.5115E-14  0.0000E+00  0.4167E-16  0.0000E+00  0.0000E+00
    -39.418  0.0000E+00  0.2412E-20  0.0000E+00  0.7600E-18  0.0000E+00  0.6339E-20  0.0000E+00  0.0000E+00
    -39.242  0.0000E+00  0.0000E+00  0.0000E+00  0.0000E+00  0.0000E+00  0.0000E+00  0.0000E+00  0.0000E+00
    -39.066  0.0000E+00  0.0000E+00  0.0000E+00  0.0000E+00  0.0000E+00  0.0000E+00  0.0000E+00  0.0000E+00
    -38.890  0.0000E+00  0.0000E+00  0.0000E+00  0.0000E+00  0.0000E+00  0.0000E+00  0.0000E+00  0.0000E+00
    -38.714  0.0000E+00  0.0000E+00  0.0000E+00  0.0000E+00  0.0000E+00  0.0000E+00  0.0000E+00  0.0000E+00
    -38.538  0.0000E+00  0.0000E+00  0.0000E+00  0.0000E+00  0.0000E+00  0.0000E+00  0.0000E+00  0.0000E+00
    -38.362  0.0000E+00  0.0000E+00  0.0000E+00  0.0000E+00  0.0000E+00  0.0000E+00  0.0000E+00  0.0000E+00
    -38.186  0.0000E+00  0.0000E+00  0.0000E+00  0.0000E+00  0.0000E+00  0.0000E+00  0.0000E+00  0.0000E+00
    -38.010  0.0000E+00  0.0000E+00  0.0000E+00  0.0000E+00  0.0000E+00  0.0000E+00  0.0000E+00  0.0000E+00
    -37.833  0.0000E+00  0.0000E+00  0.0000E+00  0.0000E+00  0.0000E+00  0.0000E+00  0.0000E+00  0.0000E+00
    -37.657  0.0000E+00  0.0000E+00  0.0000E+00  0.0000E+00  0.0000E+00  0.0000E+00  0.0000E+00  0.0000E+00
    -37.481  0.0000E+00  0.0000E+00  0.0000E+00  0.0000E+00  0.0000E+00  0.0000E+00  0.0000E+00  0.0000E+00
    -37.305  0.0000E+00  0.0000E+00  0.0000E+00  0.0000E+00  0.0000E+00  0.0000E+00  0.0000E+00  0.0000E+00
    -37.129  0.0000E+00  0.0000E+00  0.0000E+00  0.0000E+00  0.0000E+00  0.0000E+00  0.0000E+00  0.0000E+00
    -36.953  0.0000E+00  0.0000E+00  0.0000E+00  0.0000E+00  0.0000E+00  0.0000E+00  0.0000E+00  0.0000E+00
    -36.777  0.0000E+00  0.0000E+00  0.0000E+00  0.0000E+00  0.0000E+00  0.0000E+00  0.0000E+00  0.0000E+00
    -36.601  0.0000E+00  0.0000E+00  0.0000E+00  0.0000E+00  0.0000E+00  0.0000E+00  0.0000E+00  0.0000E+00
    -36.425  0.0000E+00  0.0000E+00  0.0000E+00  0.0000E+00  0.0000E+00  0.0000E+00  0.0000E+00  0.0000E+00
    -36.249  0.0000E+00  0.0000E+00  0.0000E+00  0.0000E+00  0.0000E+00  0.0000E+00  0.0000E+00  0.0000E+00
    -36.073  0.0000E+00  0.0000E+00  0.0000E+00  0.0000E+00  0.0000E+00  0.0000E+00  0.0000E+00  0.0000E+00
    -35.896  0.0000E+00  0.0000E+00  0.0000E+00  0.0000E+00  0.0000E+00  0.0000E+00  0.0000E+00  0.0000E+00
    -35.720  0.0000E+00  0.0000E+00  0.0000E+00  0.0000E+00  0.0000E+00  0.0000E+00  0.0000E+00  0.0000E+00
    -35.544  0.0000E+00  0.0000E+00  0.0000E+00  0.0000E+00  0.0000E+00  0.0000E+00  0.0000E+00  0.0000E+00
    -35.368  0.0000E+00  0.0000E+00  0.0000E+00  0.0000E+00  0.0000E+00  0.0000E+00  0.0000E+00  0.0000E+00
    -35.192  0.0000E+00  0.0000E+00  0.0000E+00  0.0000E+00  0.0000E+00  0.0000E+00  0.0000E+00  0.0000E+00
    -35.016  0.0000E+00  0.0000E+00  0.0000E+00  0.0000E+00  0.0000E+00  0.0000E+00  0.0000E+00  0.0000E+00
    -34.840  0.0000E+00  0.0000E+00  0.0000E+00  0.0000E+00  0.0000E+00  0.0000E+00  0.0000E+00  0.0000E+00
    -34.664  0.0000E+00  0.0000E+00  0.0000E+00  0.0000E+00  0.0000E+00  0.0000E+00  0.0000E+00  0.0000E+00
    -34.488  0.0000E+00  0.0000E+00  0.0000E+00  0.0000E+00  0.0000E+00  0.0000E+00  0.0000E+00  0.0000E+00
    -34.312  0.0000E+00  0.0000E+00  0.0000E+00  0.0000E+00  0.0000E+00  0.0000E+00  0.0000E+00  0.0000E+00
    -34.135  0.0000E+00  0.0000E+00  0.0000E+00  0.0000E+00  0.0000E+00  0.0000E+00  0.0000E+00  0.0000E+00
    -33.959  0.0000E+00  0.0000E+00  0.0000E+00  0.0000E+00  0.0000E+00  0.0000E+00  0.0000E+00  0.0000E+00
    -33.783  0.0000E+00  0.0000E+00  0.0000E+00  0.0000E+00  0.0000E+00  0.0000E+00  0.0000E+00  0.0000E+00
    -33.607  0.0000E+00  0.0000E+00  0.0000E+00  0.0000E+00  0.0000E+00  0.0000E+00  0.0000E+00  0.0000E+00
    -33.431  0.0000E+00  0.0000E+00  0.0000E+00  0.0000E+00  0.0000E+00  0.0000E+00  0.0000E+00  0.0000E+00
    -33.255  0.0000E+00  0.0000E+00  0.0000E+00  0.0000E+00  0.0000E+00  0.0000E+00  0.0000E+00  0.0000E+00
    -33.079  0.0000E+00  0.0000E+00  0.0000E+00  0.0000E+00  0.0000E+00  0.0000E+00  0.0000E+00  0.0000E+00
    -32.903  0.0000E+00  0.0000E+00  0.0000E+00  0.0000E+00  0.0000E+00  0.0000E+00  0.0000E+00  0.0000E+00
    -32.727  0.0000E+00  0.0000E+00  0.0000E+00  0.0000E+00  0.0000E+00  0.0000E+00  0.0000E+00  0.0000E+00
    -32.551  0.0000E+00  0.0000E+00  0.0000E+00  0.0000E+00  0.0000E+00  0.0000E+00  0.0000E+00  0.0000E+00
    -32.374  0.0000E+00  0.0000E+00  0.0000E+00  0.0000E+00  0.0000E+00  0.0000E+00  0.0000E+00  0.0000E+00
    -32.198  0.0000E+00  0.0000E+00  0.0000E+00  0.0000E+00  0.0000E+00  0.0000E+00  0.0000E+00  0.0000E+00
    -32.022  0.1121E-19  0.0000E+00  0.1366E-19  0.0000E+00  0.9078E-21  0.0000E+00  0.0000E+00  0.0000E+00
    -31.846  0.1229E-15  0.8458E-16  0.1498E-15  0.1053E-15  0.1015E-16  0.6921E-17  0.0000E+00  0.0000E+00
    -31.670  0.4722E-12  0.3453E-12  0.5761E-12  0.4303E-12  0.4013E-13  0.2902E-13  0.0000E+00  0.0000E+00
    -31.494  0.4002E-09  0.3107E-09  0.4889E-09  0.3876E-09  0.3624E-10  0.2773E-10  0.0000E+00  0.0000E+00
    -31.318  0.7610E-07  0.6268E-07  0.9325E-07  0.7838E-07  0.7885E-08  0.6357E-08  0.0000E+00  0.0000E+00
    -31.142  0.3335E-05  0.2910E-05  0.4115E-05  0.3661E-05  0.4457E-06  0.3765E-06  0.0000E+00  0.0000E+00
    -30.966  0.3500E-04  0.3230E-04  0.4385E-04  0.4117E-04  0.7022E-05  0.6189E-05  0.0000E+00  0.0000E+00
    -30.790  0.9167E-04  0.8935E-04  0.1186E-03  0.1171E-03  0.3177E-04  0.2920E-04  0.0000E+00  0.0000E+00
    -30.613  0.6155E-04  0.6332E-04  0.8515E-04  0.8782E-04  0.4079E-04  0.3918E-04  0.0000E+00  0.0000E+00
    -30.437  0.1078E-04  0.1167E-04  0.1692E-04  0.1807E-04  0.1438E-04  0.1447E-04  0.0000E+00  0.0000E+00
    -30.261  0.6221E-06  0.6943E-06  0.1114E-05  0.1210E-05  0.1381E-05  0.1453E-05  0.0000E+00  0.0000E+00
    -30.085  0.2947E-07  0.3333E-07  0.4680E-07  0.5181E-07  0.5168E-07  0.5535E-07  0.0000E+00  0.0000E+00
    -29.909  0.9339E-09  0.1109E-08  0.1466E-08  0.1685E-08  0.1795E-08  0.1954E-08  0.0000E+00  0.0000E+00
    -29.733  0.1517E-10  0.1805E-10  0.2285E-10  0.2671E-10  0.3577E-10  0.4027E-10  0.0000E+00  0.0000E+00
    -29.557  0.1552E-12  0.1867E-12  0.1965E-12  0.2340E-12  0.4142E-12  0.4572E-12  0.0000E+00  0.0000E+00
    -29.381  0.5328E-15  0.6871E-15  0.7046E-15  0.8732E-15  0.2619E-14  0.2909E-14  0.0000E+00  0.0000E+00
    -29.205  0.4579E-18  0.6592E-18  0.7688E-18  0.9985E-18  0.4697E-17  0.5422E-17  0.0000E+00  0.0000E+00
    -29.029  0.9815E-22  0.1636E-21  0.2298E-21  0.3127E-21  0.1923E-20  0.2322E-20  0.0000E+00  0.0000E+00
    -28.852  0.3138E-26  0.7797E-26  0.1528E-25  0.2291E-25  0.1721E-24  0.2289E-24  0.0000E+00  0.0000E+00
    -28.676  0.0000E+00  0.0000E+00  0.0000E+00  0.0000E+00  0.0000E+00  0.0000E+00  0.0000E+00  0.0000E+00
    -28.500  0.0000E+00  0.0000E+00  0.0000E+00  0.0000E+00  0.0000E+00  0.0000E+00  0.0000E+00  0.0000E+00
    -28.324  0.0000E+00  0.0000E+00  0.0000E+00  0.0000E+00  0.0000E+00  0.0000E+00  0.0000E+00  0.0000E+00
    -28.148  0.0000E+00  0.0000E+00  0.0000E+00  0.0000E+00  0.0000E+00  0.0000E+00  0.0000E+00  0.0000E+00
    -27.972  0.0000E+00  0.0000E+00  0.0000E+00  0.0000E+00  0.0000E+00  0.0000E+00  0.0000E+00  0.0000E+00
    -27.796  0.0000E+00  0.0000E+00  0.0000E+00  0.0000E+00  0.0000E+00  0.0000E+00  0.0000E+00  0.0000E+00
    -27.620  0.0000E+00  0.0000E+00  0.0000E+00  0.0000E+00  0.0000E+00  0.0000E+00  0.0000E+00  0.0000E+00
    -27.444  0.0000E+00  0.0000E+00  0.0000E+00  0.0000E+00  0.0000E+00  0.0000E+00  0.0000E+00  0.0000E+00
    -27.268  0.0000E+00  0.0000E+00  0.0000E+00  0.0000E+00  0.0000E+00  0.0000E+00  0.0000E+00  0.0000E+00