 vasp.6.4.3 19Mar24 (build Jul 09 2024 15:45:28) complex                        
  
 executed on             LinuxIFC date 2024.10.29  11:50:26
 running   40 mpi-ranks, on    1 nodes
 distrk:  each k-point on   40 cores,    1 groups
 distr:  one band on NCORE=   4 cores,   10 groups


--------------------------------------------------------------------------------------------------------


 INCAR:
   ENCUT = 400.000000
   POTIM = 0.150000
   EDIFF = 1.00e-04
   EDIFFG = -1.00e-01
   ALGO = Normal
   GGA = PE
   PREC = Normal
   IBRION = 2
   IDIPOL = 3
   ISMEAR = 0
   ISPIN = 2
   LMAXMIX = 6
   LORBIT = 10
   NELM = 30
   NELMIN = 5
   NPAR = 10
   NSIM = 10
   NSW = 5
   KGAMMA = .TRUE.
   LASPH = .TRUE.
   LCHARG = .FALSE.
   LDIPOL = .TRUE.
   LWAVE = .FALSE.
   LREAL = .TRUE.
   MAGMOM = 8*1.0000 26*0.0000

 POTCAR:    PAW_PBE Cr_pv 02Aug2007               
 POTCAR:    PAW_PBE La 06Sep2000                  
 POTCAR:    PAW_PBE O 08Apr2002                   
 POTCAR:    PAW_PBE Cr_pv 02Aug2007               
   SHA256 =  c9a7df34d3cdbacf1090e328ef39c0b420964e11c23f63548d1ac9dd218cdba0 Cr_pv/POTCAR          
   COPYR  = (c) Copyright 02Aug2007 Georg Kresse                                                    
   COPYR  = This file is part of the software VASP. Any use, copying, and all other rights are regul
   COPYR  = If you do not have a valid VASP license, you may not use, copy or distribute this file. 
   VRHFIN =Cr : p6d5s1                                                                              
   LEXCH  = PE                                                                                      
   EATOM  =  1647.9177 eV,  121.1185 Ry                                                             
                                                                                                    
   TITEL  = PAW_PBE Cr_pv 02Aug2007                                                                 
   LULTRA =        F    use ultrasoft PP ?                                                          
   IUNSCR =        1    unscreen: 0-lin 1-nonlin 2-no                                               
   RPACOR =    2.080    partial core radius                                                         
   POMASS =   51.996; ZVAL   =   12.000    mass and valenz                                          
   RCORE  =    2.300    outmost cutoff radius                                                       
   RWIGS  =    2.500; RWIGS  =    1.323    wigner-seitz radius (au A)                               
   ENMAX  =  265.681; ENMIN  =  199.261 eV                                                          
   ICORE  =        3    local potential                                                             
   LCOR   =        T    correct aug charges                                                         
   LPAW   =        T    paw PP                                                                      
   EAUG   =  519.424                                                                                
   DEXC   =    0.000                                                                                
   RMAX   =    2.356    core radius for proj-oper                                                   
   RAUG   =    1.300    factor for augmentation sphere                                              
   RDEP   =    2.447    radius for radial grids                                                     
   RDEPT  =    1.882    core radius for aug-charge                                                  
                                                                                                    
   Atomic configuration                                                                             
    8 entries                                                                                       
     n  l   j            E        occ.                                                              
     1  0  0.50     -5880.4963   2.0000                                                             
     2  0  0.50      -667.0865   2.0000                                                             
     2  1  1.50      -560.6250   6.0000                                                             
     3  0  0.50       -73.9860   2.0000                                                             
     3  1  1.50       -45.4378   6.0000                                                             
     3  2  2.50        -2.9137   5.0000                                                             
     4  0  0.50        -4.0071   1.0000                                                             
     4  3  2.50        -1.3606   0.0000                                                             
   Description                                                                                      
     l       E           TYP  RCUT    TYP  RCUT                                                     
     1    -45.4377911     23  2.000                                                                 
     1      1.3605826     23  2.000                                                                 
     2     -2.9136672     23  2.300                                                                 
     2     -4.2742498     23  2.300                                                                 
     0     -4.0071320     23  2.300                                                                 
     0      9.4498803     23  2.300                                                                 
     3      2.7211652     23  2.300                                                                 
  local pseudopotential read in
  partial core-charges read in
  partial kinetic energy density read in
  atomic valenz-charges read in
  non local Contribution for L=           1  read in
    real space projection operators read in
  non local Contribution for L=           1  read in
    real space projection operators read in
  non local Contribution for L=           2  read in
    real space projection operators read in
  non local Contribution for L=           2  read in
    real space projection operators read in
  non local Contribution for L=           0  read in
    real space projection operators read in
  non local Contribution for L=           0  read in
    real space projection operators read in
    PAW grid and wavefunctions read in
 
   number of l-projection  operators is LMAX  =           6
   number of lm-projection operators is LMMAX =          18
 
 POTCAR:    PAW_PBE La 06Sep2000                  
   SHA256 =  b7aad99517e50aeb53363b20a29bb0dfa896544080812fb23322f071df953199 La/POTCAR             
   COPYR  = (c) Copyright 06Sep2000 Georg Kresse                                                    
   COPYR  = This file is part of the software VASP. Any use, copying, and all other rights are regul
   COPYR  = If you do not have a valid VASP license, you may not use, copy or distribute this file. 
   VRHFIN =La : [core=Kr4d]                                                                         
   LEXCH  = PE                                                                                      
   EATOM  =   865.9763 eV,   63.6475 Ry                                                             
                                                                                                    
   TITEL  = PAW_PBE La 06Sep2000                                                                    
   LULTRA =        F    use ultrasoft PP ?                                                          
   IUNSCR =        1    unscreen: 0-lin 1-nonlin 2-no                                               
   RPACOR =    2.300    partial core radius                                                         
   POMASS =  138.900; ZVAL   =   11.000    mass and valenz                                          
   RCORE  =    2.800    outmost cutoff radius                                                       
   RWIGS  =    2.900; RWIGS  =    1.535    wigner-seitz radius (au A)                               
   ENMAX  =  219.292; ENMIN  =  164.469 eV                                                          
   RCLOC  =    1.601    cutoff for local pot                                                        
   LCOR   =        T    correct aug charges                                                         
   LPAW   =        T    paw PP                                                                      
   EAUG   =  583.575                                                                                
   DEXC   =    0.000                                                                                
   RMAX   =    2.853    core radius for proj-oper                                                   
   RAUG   =    1.300    factor for augmentation sphere                                              
   RDEP   =    2.802    radius for radial grids                                                     
   RDEPT  =    2.156    core radius for aug-charge                                                  
                                                                                                    
   Atomic configuration                                                                             
   14 entries                                                                                       
     n  l   j            E        occ.                                                              
     1  0  0.50    -38741.0879   2.0000                                                             
     2  0  0.50     -6166.6801   2.0000                                                             
     2  1  1.50     -5526.1593   6.0000                                                             
     3  0  0.50     -1319.0200   2.0000                                                             
     3  1  1.50     -1114.5963   6.0000                                                             
     3  2  2.50      -821.1793  10.0000                                                             
     4  0  0.50      -266.3851   2.0000                                                             
     4  1  1.50      -199.9276   6.0000                                                             
     4  2  2.50      -103.8239  10.0000                                                             
     5  0  0.50       -38.9172   2.0000                                                             
     6  0  0.50        -3.6792   2.0000                                                             
     5  1  1.50       -22.3948   6.0000                                                             
     5  2  2.50        -3.0911   0.9999                                                             
     4  3  2.50        -4.3603   0.0001                                                             
   Description                                                                                      
     l       E           TYP  RCUT    TYP  RCUT                                                     
     0    -38.9171645     23  2.800                                                                 
     0     -3.6792381     23  2.800                                                                 
     1    -22.3948300     23  2.500                                                                 
     1     27.2116520     23  2.500                                                                 
     2     -3.0910934     23  2.500                                                                 
     2      1.0119135     23  2.500                                                                 
     3     -4.3602911     23  2.800                                                                 
     3     -5.7208737     23  2.800                                                                 
  local pseudopotential read in
  partial core-charges read in
  partial kinetic energy density read in
  atomic valenz-charges read in
  non local Contribution for L=           0  read in
    real space projection operators read in
  non local Contribution for L=           0  read in
    real space projection operators read in
  non local Contribution for L=           1  read in
    real space projection operators read in
  non local Contribution for L=           1  read in
    real space projection operators read in
  non local Contribution for L=           2  read in
    real space projection operators read in
  non local Contribution for L=           2  read in
    real space projection operators read in
  non local Contribution for L=           3  read in
    real space projection operators read in
  non local Contribution for L=           3  read in
    real space projection operators read in
    PAW grid and wavefunctions read in
 
   number of l-projection  operators is LMAX  =           8
   number of lm-projection operators is LMMAX =          32
 
 POTCAR:    PAW_PBE O 08Apr2002                   
   SHA256 =  818f92134a0a090dccd8ba1447fa70422a3b330e708bb4f08108d8ae51209ddf O/POTCAR              
   COPYR  = (c) Copyright 08Apr2002 Georg Kresse                                                    
   COPYR  = This file is part of the software VASP. Any use, copying, and all other rights are regul
   COPYR  = If you do not have a valid VASP license, you may not use, copy or distribute this file. 
   VRHFIN =O: s2p4                                                                                  
   LEXCH  = PE                                                                                      
   EATOM  =   432.3788 eV,   31.7789 Ry                                                             
                                                                                                    
   TITEL  = PAW_PBE O 08Apr2002                                                                     
   LULTRA =        F    use ultrasoft PP ?                                                          
   IUNSCR =        1    unscreen: 0-lin 1-nonlin 2-no                                               
   RPACOR =    1.200    partial core radius                                                         
   POMASS =   16.000; ZVAL   =    6.000    mass and valenz                                          
   RCORE  =    1.520    outmost cutoff radius                                                       
   RWIGS  =    1.550; RWIGS  =    0.820    wigner-seitz radius (au A)                               
   ENMAX  =  400.000; ENMIN  =  300.000 eV                                                          
   ICORE  =        2    local potential                                                             
   LCOR   =        T    correct aug charges                                                         
   LPAW   =        T    paw PP                                                                      
   EAUG   =  605.392                                                                                
   DEXC   =    0.000                                                                                
   RMAX   =    1.553    core radius for proj-oper                                                   
   RAUG   =    1.300    factor for augmentation sphere                                              
   RDEP   =    1.550    radius for radial grids                                                     
   RDEPT  =    1.329    core radius for aug-charge                                                  
                                                                                                    
   Atomic configuration                                                                             
    4 entries                                                                                       
     n  l   j            E        occ.                                                              
     1  0  0.50      -514.6923   2.0000                                                             
     2  0  0.50       -23.9615   2.0000                                                             
     2  1  0.50        -9.0305   4.0000                                                             
     3  2  1.50        -9.5241   0.0000                                                             
   Description                                                                                      
     l       E           TYP  RCUT    TYP  RCUT                                                     
     0    -23.9615318     23  1.200                                                                 
     0     -9.5240782     23  1.200                                                                 
     1     -9.0304911     23  1.520                                                                 
     1      8.1634956     23  1.520                                                                 
     2     -9.5240782      7  1.500                                                                 
  local pseudopotential read in
  partial core-charges read in
  partial kinetic energy density read in
  kinetic energy density of atom read in
  atomic valenz-charges read in
  non local Contribution for L=           0  read in
    real space projection operators read in
  non local Contribution for L=           0  read in
    real space projection operators read in
  non local Contribution for L=           1  read in
    real space projection operators read in
  non local Contribution for L=           1  read in
    real space projection operators read in
    PAW grid and wavefunctions read in
 
   number of l-projection  operators is LMAX  =           4
   number of lm-projection operators is LMMAX =           8
 
 -----------------------------------------------------------------------------
|                                                                             |
|           W    W    AA    RRRRR   N    N  II  N    N   GGGG   !!!           |
|           W    W   A  A   R    R  NN   N  II  NN   N  G    G  !!!           |
|           W    W  A    A  R    R  N N  N  II  N N  N  G       !!!           |
|           W WW W  AAAAAA  RRRRR   N  N N  II  N  N N  G  GGG   !            |
|           WW  WW  A    A  R   R   N   NN  II  N   NN  G    G                |
|           W    W  A    A  R    R  N    N  II  N    N   GGGG   !!!           |
|                                                                             |
|     The real-space projection scheme for the treatment of the non-local     |
|     pseudopotentials has been switched on but on file POTCAR I have not     |
|     found any entries, signalling me that you have never performed a        |
|     real-space optimization of all non-local projectors! BE WARNED that     |
|     a calculation using the real-space projection scheme together with      |
|     non-local projectors which were not real-space optimized (according     |
|     to the plane-wave cutoff used in this calculation) might give more      |
|     or less inaccurate results. I hope you know what you are doing.         |
|                                                                             |
 -----------------------------------------------------------------------------

  PAW_PBE Cr_pv 02Aug2007               :
 energy of atom  1       EATOM=-1647.9177
 kinetic energy error for atom=    0.0284 (will be added to EATOM!!)
  PAW_PBE La 06Sep2000                  :
 energy of atom  2       EATOM= -865.9763
 kinetic energy error for atom=    0.0031 (will be added to EATOM!!)
  PAW_PBE O 08Apr2002                   :
 energy of atom  3       EATOM= -432.3788
 kinetic energy error for atom=    0.1156 (will be added to EATOM!!)
 
 
 POSCAR: Cr La O
  positions in cartesian coordinates
  No initial velocities read in


 exchange-correlation table for PE
   RHO(1)=    0.500       N(1)  =     2000
   RHO(2)=  100.500       N(2)  =     4000

 VTST: version 4.1, (05/19/21)

 CHAIN: initializing optimizer
 
 OPT: Using VASP Conjugate-Gradient optimizer
 CHAIN: Read ICHAIN            0
 
 POSCAR: Cr La O
  positions in cartesian coordinates
  No initial velocities read in
 


--------------------------------------------------------------------------------------------------------


 ion  position               nearest neighbor table
   1  0.000  0.500  0.003-  16 1.91  18 1.97  15 2.18  10 3.23   9 3.35   9 3.42
   2  0.500  0.000  0.003-  15 1.91  17 1.97  16 2.18   9 3.23  10 3.35  10 3.42
   3  0.500  0.000  0.136-  20 1.91  21 1.91  17 1.97  23 1.97  22 2.18  19 2.18   9 3.23  11 3.23
                            10 3.35  12 3.35  12 3.42  10 3.42
   4  0.000  0.500  0.136-  19 1.91  22 1.91  18 1.97  24 1.97  20 2.18  21 2.18  10 3.23  12 3.23
                            11 3.35   9 3.35   9 3.42  11 3.42
   5  0.000  0.500  0.268-  28 1.91  25 1.91  30 1.97  24 1.97  27 2.18  26 2.18  14 3.23  12 3.23
                            13 3.35  11 3.35  13 3.42  11 3.42
   6  0.500  0.000  0.268-  27 1.91  26 1.91  29 1.97  23 1.97  28 2.18  25 2.18  13 3.23  11 3.23
                            14 3.35  12 3.35  14 3.42  12 3.42
   7  0.500  0.000  0.400-  33 1.91  32 1.91  29 1.97  34 2.18  31 2.18  13 3.23  14 3.35  14 3.42

   8  0.000  0.500  0.400-  34 1.91  31 1.91  30 1.97  33 2.18  32 2.18  14 3.23  13 3.35  13 3.42

   9  0.508  0.549  0.070-  18 2.43  16 2.46  19 2.46  17 2.56  15 2.65  20 2.65  22 2.70   3 3.23
                             2 3.23   4 3.35   1 3.35   4 3.42   1 3.42
  10  0.992  0.049  0.070-  17 2.43  15 2.46  20 2.46  18 2.56  19 2.65  16 2.65  21 2.70   4 3.23
                             1 3.23   3 3.35   2 3.35   3 3.42   2 3.42
  11  0.492  0.451  0.202-  24 2.43  22 2.46  25 2.46  23 2.56  21 2.65  26 2.65  19 2.70  28 2.70
                             3 3.23   6 3.23   4 3.35   5 3.35   4 3.42   5 3.42
  12  0.008  0.951  0.202-  23 2.43  21 2.46  26 2.46  24 2.56  25 2.65  22 2.65  20 2.70  27 2.70
                             4 3.23   5 3.23   3 3.35   6 3.35   3 3.42   6 3.42
  13  0.508  0.549  0.334-  30 2.43  28 2.46  31 2.46  29 2.56  27 2.65  32 2.65  25 2.70  34 2.70
                             6 3.23   7 3.23   5 3.35   8 3.35   5 3.42   8 3.42
  14  0.992  0.049  0.334-  29 2.43  27 2.46  32 2.46  30 2.56  31 2.65  28 2.65  26 2.70  33 2.70
                             5 3.23   8 3.23   6 3.35   7 3.35   6 3.42   7 3.42
  15  0.774  0.807  0.014-   2 1.91   1 2.18  10 2.46   9 2.65
  16  0.726  0.307  0.014-   1 1.91   2 2.18   9 2.46  10 2.65
  17  0.425  0.987  0.070-   3 1.97   2 1.97  10 2.43   9 2.56
  18  0.075  0.487  0.070-   4 1.97   1 1.97   9 2.43  10 2.56
  19  0.726  0.307  0.126-   4 1.91   3 2.18   9 2.46  10 2.65  11 2.70
  20  0.774  0.807  0.126-   3 1.91   4 2.18  10 2.46   9 2.65  12 2.70
  21  0.226  0.193  0.146-   3 1.91   4 2.18  12 2.46  11 2.65  10 2.70
  22  0.274  0.693  0.146-   4 1.91   3 2.18  11 2.46  12 2.65   9 2.70
  23  0.575  0.013  0.202-   3 1.97   6 1.97  12 2.43  11 2.56
  24  0.925  0.513  0.202-   4 1.97   5 1.97  11 2.43  12 2.56
  25  0.274  0.693  0.258-   5 1.91   6 2.18  11 2.46  12 2.65  13 2.70
  26  0.226  0.193  0.258-   6 1.91   5 2.18  12 2.46  11 2.65  14 2.70
  27  0.774  0.807  0.278-   6 1.91   5 2.18  14 2.46  13 2.65  12 2.70
  28  0.726  0.307  0.278-   5 1.91   6 2.18  13 2.46  14 2.65  11 2.70
  29  0.425  0.987  0.334-   6 1.97   7 1.97  14 2.43  13 2.56
  30  0.075  0.487  0.334-   5 1.97   8 1.97  13 2.43  14 2.56
  31  0.726  0.307  0.390-   8 1.91   7 2.18  13 2.46  14 2.65
  32  0.774  0.807  0.390-   7 1.91   8 2.18  14 2.46  13 2.65
  33  0.226  0.193  0.410-   7 1.91   8 2.18  14 2.70
  34  0.274  0.693  0.410-   8 1.91   7 2.18  13 2.70
 
  LATTYP: Found a simple orthorhombic cell.
 ALAT       =     5.5367000000
 B/A-ratio  =     1.0380370979
 C/A-ratio  =     5.2541031011
  
  Lattice vectors:
  
 A1 = (   5.5367000000,   0.0000000000,   0.0000000000)
 A2 = (   0.0000000000,   5.7473000000,   0.0000000000)
 A3 = (   0.0000000000,   0.0000000000,  29.0903926400)


Analysis of symmetry for initial positions (statically):
=====================================================================
 Subroutine PRICEL returns:
 Original cell was already a primitive cell.
 

 Routine SETGRP: Setting up the symmetry group for a 
 simple orthorhombic supercell.


 Subroutine GETGRP returns: Found  2 space group operations
 (whereof  1 operations were pure point group operations)
 out of a pool of  8 trial point group operations.


The static configuration has the point symmetry C_1 .
 The point group associated with its full space group is C_1h.


Analysis of symmetry for dynamics (positions and initial velocities):
=====================================================================
 Subroutine PRICEL returns:
 Original cell was already a primitive cell.
 

 Routine SETGRP: Setting up the symmetry group for a 
 simple orthorhombic supercell.


 Subroutine GETGRP returns: Found  2 space group operations
 (whereof  1 operations were pure point group operations)
 out of a pool of  8 trial point group operations.


The dynamic configuration has the point symmetry C_1 .
 The point group associated with its full space group is C_1h.


Analysis of constrained symmetry for selective dynamics:
=====================================================================
 Subroutine PRICEL returns:
 Original cell was already a primitive cell.
 

 Routine SETGRP: Setting up the symmetry group for a 
 simple orthorhombic supercell.


 Subroutine GETGRP returns: Found  2 space group operations
 (whereof  1 operations were pure point group operations)
 out of a pool of  8 trial point group operations.


The constrained configuration has the point symmetry C_1 .
 The point group associated with its full space group is C_1h.


Analysis of structural, dynamic, and magnetic symmetry:
=====================================================================
 Subroutine PRICEL returns:
 Original cell was already a primitive cell.
 

 Routine SETGRP: Setting up the symmetry group for a 
 simple orthorhombic supercell.


 Subroutine GETGRP returns: Found  2 space group operations
 (whereof  1 operations were pure point group operations)
 out of a pool of  8 trial point group operations.


The overall configuration has the point symmetry C_1 .
 The point group associated with its full space group is C_1h.


 Subroutine INISYM returns: Found  2 space group operations
 (whereof  1 operations are pure point group operations),
 and found     1 'primitive' translations


----------------------------------------------------------------------------------------

                                     Primitive cell                                     

  volume of cell :     925.6876

  direct lattice vectors                    reciprocal lattice vectors
     5.536700000  0.000000000  0.000000000     0.180613001  0.000000000  0.000000000
     0.000000000  5.747300000  0.000000000     0.000000000  0.173994745  0.000000000
     0.000000000  0.000000000 29.090392640     0.000000000  0.000000000  0.034375610

  length of vectors
     5.536700000  5.747300000 29.090392640     0.180613001  0.173994745  0.034375610

  position of ions in fractional coordinates (direct lattice)
     0.000000000  0.500000000  0.003437561
     0.500000000  0.000000000  0.003437561
     0.500000000  0.000000000  0.135661627
     0.000000000  0.500000000  0.135661627
     0.000000000  0.500000000  0.267885693
     0.500000000  0.000000000  0.267885693
     0.500000000  0.000000000  0.400109759
     0.000000000  0.500000000  0.400109759
     0.507800000  0.549000000  0.069549594
     0.992200000  0.049000000  0.069549594
     0.492200000  0.451000000  0.201773660
     0.007800000  0.951000000  0.201773660
     0.507800000  0.549000000  0.333997726
     0.992200000  0.049000000  0.333997726
     0.774400000  0.806600000  0.013592369
     0.725600000  0.306600000  0.013592369
     0.425500000  0.987400000  0.069549594
     0.074500000  0.487400000  0.069549594
     0.725600000  0.306600000  0.125506819
     0.774400000  0.806600000  0.125506819
     0.225600000  0.193400000  0.145816435
     0.274400000  0.693400000  0.145816435
     0.574500000  0.012600000  0.201773660
     0.925500000  0.512600000  0.201773660
     0.274400000  0.693400000  0.257730885
     0.225600000  0.193400000  0.257730885
     0.774400000  0.806600000  0.278040502
     0.725600000  0.306600000  0.278040502
     0.425500000  0.987400000  0.333997726
     0.074500000  0.487400000  0.333997726
     0.725600000  0.306600000  0.389954951
     0.774400000  0.806600000  0.389954951
     0.225600000  0.193400000  0.410264568
     0.274400000  0.693400000  0.410264568

  ion indices of the primitive-cell ions
   primitive index   ion index
                 1           1
                 2           2
                 3           3
                 4           4
                 5           5
                 6           6
                 7           7
                 8           8
                 9           9
                10          10
                11          11
                12          12
                13          13
                14          14
                15          15
                16          16
                17          17
                18          18
                19          19
                20          20
                21          21
                22          22
                23          23
                24          24
                25          25
                26          26
                27          27
                28          28
                29          29
                30          30
                31          31
                32          32
                33          33
                34          34

----------------------------------------------------------------------------------------

 
 
 KPOINTS: KPOINTS created by Atomic Simulation Env

Automatic generation of k-mesh.
 Grid dimensions read from file:
 generate k-points for:    1    1    1

 Generating k-lattice:

  Cartesian coordinates                     Fractional coordinates (reciprocal lattice)
     0.180613001  0.000000000  0.000000000     1.000000000  0.000000000  0.000000000
     0.000000000  0.173994745  0.000000000     0.000000000  1.000000000  0.000000000
     0.000000000  0.000000000  0.034375610     0.000000000  0.000000000  1.000000000

  Length of vectors
     0.180613001  0.173994745  0.034375610

  Shift w.r.t. Gamma in fractional coordinates (k-lattice)
     0.000000000  0.000000000  0.000000000

 
 Subroutine IBZKPT returns following result:
 ===========================================
 
 Found      1 irreducible k-points:
 
 Following reciprocal coordinates:
            Coordinates               Weight
  0.000000  0.000000  0.000000      1.000000
 
 Following cartesian coordinates:
            Coordinates               Weight
  0.000000  0.000000  0.000000      1.000000
 


--------------------------------------------------------------------------------------------------------




 Dimension of arrays:
   k-points           NKPTS =      1   k-points in BZ     NKDIM =      1   number of bands    NBANDS=    180
   number of dos      NEDOS =    301   number of ions     NIONS =     34
   non local maximal  LDIM  =      8   non local SUM 2l+1 LMDIM =     32
   total plane-waves  NPLWV = 112896
   max r-space proj   IRMAX =   1808   max aug-charges    IRDMAX=   6572
   dimension x,y,z NGX =    28 NGY =   28 NGZ =  144
   dimension x,y,z NGXF=    56 NGYF=   56 NGZF=  288
   support grid    NGXF=    56 NGYF=   56 NGZF=  288
   ions per type =               8   6  20
   NGX,Y,Z   is equivalent  to a cutoff of   8.41,  8.10,  8.23 a.u.
   NGXF,Y,Z  is equivalent  to a cutoff of  16.81, 16.20, 16.46 a.u.

 SYSTEM =  unknown system                          
 POSCAR =  Cr La O                                 

 Startparameter for this run:
   NWRITE =      2    write-flag & timer
   PREC   = normal    normal or accurate (medium, high low for compatibility)
   ISTART =      0    job   : 0-new  1-cont  2-samecut
   ICHARG =      2    charge: 1-file 2-atom 10-const
   ISPIN  =      2    spin polarized calculation?
   LNONCOLLINEAR =      F non collinear calculations
   LSORBIT =      F    spin-orbit coupling
   INIWAV =      1    electr: 0-lowe 1-rand  2-diag
   LASPH  =      T    aspherical Exc in radial PAW
 Electronic Relaxation 1
   ENCUT  =  400.0 eV  29.40 Ry    5.42 a.u.   9.03  9.37 47.44*2*pi/ulx,y,z
   ENINI  =  400.0     initial cutoff
   ENAUG  =  605.4 eV  augmentation charge cutoff
   NELM   =     30;   NELMIN=  5; NELMDL= -5     # of ELM steps 
   EDIFF  = 0.1E-03   stopping-criterion for ELM
   LREAL  =      T    real-space projection
   NLSPLINE    = F    spline interpolate recip. space projectors
   LCOMPAT=      F    compatible to vasp.4.4
   GGA_COMPAT  = T    GGA compatible to vasp.4.4-vasp.4.6
   LMAXPAW     = -100 max onsite density
   LMAXMIX     =    6 max onsite mixed and CHGCAR
   VOSKOWN=      0    Vosko Wilk Nusair interpolation
   ROPT   =    0.00000   0.00000   0.00000
 Ionic relaxation
   EDIFFG = -.1E+00   stopping-criterion for IOM
   NSW    =      5    number of steps for IOM
   NBLOCK =      1;   KBLOCK =      5    inner block; outer block 
   IBRION =      2    ionic relax: 0-MD 1-quasi-New 2-CG
   NFREE  =      1    steps in history (QN), initial steepest desc. (CG)
   ISIF   =      2    stress and relaxation
   IWAVPR =     11    prediction:  0-non 1-charg 2-wave 3-comb
   ISYM   =      2    0-nonsym 1-usesym 2-fastsym
   LCORR  =      T    Harris-Foulkes like correction to forces

   POTIM  = 0.1500    time-step for ionic-motion
   TEIN   =    0.0    initial temperature
   TEBEG  =    0.0;   TEEND  =   0.0 temperature during run
   SMASS  =  -3.00    Nose mass-parameter (am)
   estimated Nose-frequenzy (Omega)   =  0.10E-29 period in steps = 0.42E+47 mass=  -0.701E-27a.u.
   SCALEE = 1.0000    scale energy and forces
   NPACO  =    256;   APACO  = 10.0  distance and # of slots for P.C.
   PSTRESS=    0.0 pullay stress

  Mass of Ions in am
   POMASS =  52.00138.90 16.00
  Ionic Valenz
   ZVAL   =  12.00 11.00  6.00
  Atomic Wigner-Seitz radii
   RWIGS  =  -1.00 -1.00 -1.00
  virtual crystal weights 
   VCA    =   1.00  1.00  1.00
   NELECT =     282.0000    total number of electrons
   NUPDOWN=      -1.0000    fix difference up-down

 DOS related values:
   EMIN   =  10.00;   EMAX   =-10.00  energy-range for DOS
   EFERMI =   0.00;   METHOD = LEGACY      
   ISMEAR =     0;   SIGMA  =   0.20  broadening in eV -4-tet -1-fermi 0-gaus

 Electronic relaxation 2 (details)
   IALGO  =     38    algorithm
   LDIAG  =      T    sub-space diagonalisation (order eigenvalues)
   LSUBROT=      F    optimize rotation matrix (better conditioning)
   TURBO    =      0    0=normal 1=particle mesh
   IRESTART =      0    0=no restart 2=restart with 2 vectors
   NREBOOT  =      0    no. of reboots
   NMIN     =      0    reboot dimension
   EREF     =   0.00    reference energy to select bands
   IMIX   =      4    mixing-type and parameters
     AMIX     =   0.40;   BMIX     =  1.00
     AMIX_MAG =   1.60;   BMIX_MAG =  1.00
     AMIN     =   0.10
     WC   =   100.;   INIMIX=   1;  MIXPRE=   1;  MAXMIX= -45

 Intra band minimization:
   WEIMIN = 0.0010     energy-eigenvalue tresh-hold
   EBREAK =  0.14E-06  absolut break condition
   DEPER  =   0.30     relativ break condition  

   TIME   =   0.40     timestep for ELM

  volume/ion in A,a.u.               =      27.23       183.73
  Fermi-wavevector in a.u.,A,eV,Ry     =   1.101547  2.081622 16.509390  1.213406
  Thomas-Fermi vector in A             =   2.237976
 
 Write flags
   LWAVE        =      F    write WAVECAR
   LDOWNSAMPLE  =      F    k-point downsampling of WAVECAR
   LCHARG       =      F    write CHGCAR
   LVTOT        =      F    write LOCPOT, total local potential
   LVHAR        =      F    write LOCPOT, Hartree potential only
   WRT_POTENTIAL= false  ! write potential to hdf5 file
   LELF         =      F    write electronic localiz. function (ELF)
   LORBIT       =     10    0 simple, 1 ext, 2 COOP (PROOUT), +10 PAW based schemes


 Dipole corrections
   LMONO      =      F    monopole corrections only (constant potential shift)
   LDIPOL     =      T    correct potential (dipole corrections)
   IDIPOL     =      3    1-x, 2-y, 3-z, 4-all directions 
   EPSILON    =  1.0000000 bulk dielectric constant
   LVACPOTAV  =      F  vacuum potentials using an averaging scheme for the charge density
   VACPOTFLAT =  0.1000000 required flatness to determine vacuum potential
 Exchange correlation treatment:
   GGA     = PE    functional components
   XC_C    = 1    coefficients multiplying the functional components
   LIBXC   =     F    Libxc                    
   VOSKOWN =     0    Vosko Wilk Nusair interpolation
   LHFCALC =     F    Hartree Fock is set to
   LHFONE  =     F    Hartree Fock one center treatment
   AEXX    =    0.0000 exact exchange contribution

 Parameters of functionals:
   PE:
     No parameter
 
 Van der Waals corrections
   IVDW    =     0    specifies the selected vdW correction

 Linear response parameters
   LEPSILON=     F    determine dielectric tensor
   LRPA    =     F    only Hartree local field effects (RPA)
   LNABLA  =     F    use nabla operator in PAW spheres
   LVEL    =     F    velocity operator in full k-point grid
   CSHIFT  =0.1000    complex shift for real part using Kramers Kronig
   OMEGAMAX=  -1.0    maximum frequency
   DEG_THRESHOLD= 0.2000000E-02 threshold for treating states as degnerate
   RTIME   =   -0.100 relaxation time in fs
  (WPLASMAI=    0.000 imaginary part of plasma frequency in eV, 0.658/RTIME)
   DFIELD  = 0.0000000 0.0000000 0.0000000 field for delta impulse in time
 
  Optional k-point grid parameters
   LKPOINTS_OPT  =     F    use optional k-point grid
   KPOINTS_OPT_MODE=     1    mode for optional k-point grid
 
 Orbital magnetization related:
   ORBITALMAG=     F  switch on orbital magnetization
   LCHIMAG   =     F  perturbation theory with respect to B field
   DQ        =  0.001000  dq finite difference perturbation B field
   LLRAUG    =     F  two centre corrections for induced B field
   LBONE     =     F  B-component reconstruction in AE one-centre
   LVGVCALC  =     T  calculate vGv susceptibility
   LVGVAPPL  =     F  apply vGv susceptibility instead of pGv for G=0

 Random number generation:
   RANDOM_GENERATOR = DEFAULT
   PCG_SEED         = not used


--------------------------------------------------------------------------------------------------------


 conjugate gradient relaxation of ions
   using selective dynamics as specified on POSCAR
   WARNING: If single coordinates had been selected the selection of coordinates
            is made according to the corresponding   d i r e c t   coordinates!
            Don't support selection of single cartesian coordinates -- sorry ...
  !
 charge density and potential will be updated during run
 spin polarized calculation
 Variant of blocked Davidson
 Davidson routine will perform the subspace rotation
 perform sub-space diagonalisation
    after iterative eigenvector-optimisation
 modified Broyden-mixing scheme, WC =      100.0
 initial mixing is a Kerker type mixing with AMIX =  0.4000 and BMIX =      1.0000
 Hartree-type preconditioning will be used
 using additional bands           39
 real space projection scheme for non local part
 use partial core corrections
 calculate Harris-corrections to forces 
   (improved forces if not selfconsistent)
 use gradient corrections 
 use of overlap-Matrix (Vanderbilt PP)
 Gauss-broadening in eV      SIGMA  =   0.20


--------------------------------------------------------------------------------------------------------


  energy-cutoff  :      400.00
  volume of cell :      925.69
      direct lattice vectors                 reciprocal lattice vectors
     5.536700000  0.000000000  0.000000000     0.180613001  0.000000000  0.000000000
     0.000000000  5.747300000  0.000000000     0.000000000  0.173994745  0.000000000
     0.000000000  0.000000000 29.090392640     0.000000000  0.000000000  0.034375610

  length of vectors
     5.536700000  5.747300000 29.090392640     0.180613001  0.173994745  0.034375610


 
 k-points in units of 2pi/SCALE and weight: KPOINTS created by Atomic Simulation Env
   0.00000000  0.00000000  0.00000000       1.000
 
 k-points in reciprocal lattice and weights: KPOINTS created by Atomic Simulation Env
   0.00000000  0.00000000  0.00000000       1.000
 
 position of ions in fractional coordinates (direct lattice) 
   0.00000000  0.50000000  0.00343756
   0.50000000  0.00000000  0.00343756
   0.50000000  0.00000000  0.13566163
   0.00000000  0.50000000  0.13566163
   0.00000000  0.50000000  0.26788569
   0.50000000  0.00000000  0.26788569
   0.50000000  0.00000000  0.40010976
   0.00000000  0.50000000  0.40010976
   0.50780000  0.54900000  0.06954959
   0.99220000  0.04900000  0.06954959
   0.49220000  0.45100000  0.20177366
   0.00780000  0.95100000  0.20177366
   0.50780000  0.54900000  0.33399773
   0.99220000  0.04900000  0.33399773
   0.77440000  0.80660000  0.01359237
   0.72560000  0.30660000  0.01359237
   0.42550000  0.98740000  0.06954959
   0.07450000  0.48740000  0.06954959
   0.72560000  0.30660000  0.12550682
   0.77440000  0.80660000  0.12550682
   0.22560000  0.19340000  0.14581644
   0.27440000  0.69340000  0.14581644
   0.57450000  0.01260000  0.20177366
   0.92550000  0.51260000  0.20177366
   0.27440000  0.69340000  0.25773088
   0.22560000  0.19340000  0.25773088
   0.77440000  0.80660000  0.27804050
   0.72560000  0.30660000  0.27804050
   0.42550000  0.98740000  0.33399773
   0.07450000  0.48740000  0.33399773
   0.72560000  0.30660000  0.38995495
   0.77440000  0.80660000  0.38995495
   0.22560000  0.19340000  0.41026457
   0.27440000  0.69340000  0.41026457
 
 position of ions in cartesian coordinates  (Angst):
   0.00000000  2.87365000  0.10000000
   2.76835000  0.00000000  0.10000000
   2.76835000  0.00000000  3.94645000
   0.00000000  2.87365000  3.94645000
   0.00000000  2.87365000  7.79290000
   2.76835000  0.00000000  7.79290000
   2.76835000  0.00000000 11.63935000
   0.00000000  2.87365000 11.63935000
   2.81153626  3.15526770  2.02322500
   5.49351374  0.28161770  2.02322500
   2.72516374  2.59203230  5.86967500
   0.04318626  5.46568230  5.86967500
   2.81153626  3.15526770  9.71612500
   5.49351374  0.28161770  9.71612500
   4.28762048  4.63577218  0.39540736
   4.01742952  1.76212218  0.39540736
   2.35586585  5.67488402  2.02322500
   0.41248415  2.80123402  2.02322500
   4.01742952  1.76212218  3.65104264
   4.28762048  4.63577218  3.65104264
   1.24907952  1.11152782  4.24185736
   1.51927048  3.98517782  4.24185736
   3.18083415  0.07241598  5.86967500
   5.12421585  2.94606598  5.86967500
   1.51927048  3.98517782  7.49749264
   1.24907952  1.11152782  7.49749264
   4.28762048  4.63577218  8.08830736
   4.01742952  1.76212218  8.08830736
   2.35586585  5.67488402  9.71612500
   0.41248415  2.80123402  9.71612500
   4.01742952  1.76212218 11.34394264
   4.28762048  4.63577218 11.34394264
   1.24907952  1.11152782 11.93475736
   1.51927048  3.98517782 11.93475736
 


--------------------------------------------------------------------------------------------------------


 k-point     1 :   0.0000 0.0000 0.0000  plane waves:   16779

 maximum and minimum number of plane-waves per node :      4200     4193

 maximum number of plane-waves:     16779
 maximum index in each direction: 
   IXMAX=    9   IYMAX=    9   IZMAX=   47
   IXMIN=   -9   IYMIN=   -9   IZMIN=  -47


 real space projection operators:
  total allocation   :       3975.62 KBytes
  max/ min on nodes  :        995.94        990.94


 parallel 3D FFT for wavefunctions:
    minimum data exchange during FFTs selected (reduces bandwidth)
 parallel 3D FFT for charge:
    minimum data exchange during FFTs selected (reduces bandwidth)


 total amount of memory used by VASP MPI-rank0    42619. kBytes
=======================================================================

   base      :      30000. kBytes
   nonlr-proj:       2243. kBytes
   fftplans  :       1875. kBytes
   grid      :       5118. kBytes
   one-center:        884. kBytes
   wavefun   :       2499. kBytes
 
     INWAV:  cpu time      0.0001: real time      0.0002
 Broyden mixing: mesh for mixing (old mesh)
   NGX = 19   NGY = 19   NGZ = 95
  (NGX  = 56   NGY  = 56   NGZ  =288)
  gives a total of  34295 points

 initial charge density was supplied:
 charge density of overlapping atoms calculated
 number of electron     282.0000000 magnetization       8.0000000
 keeping initial charge density in first step


--------------------------------------------------------------------------------------------------------


 Maximum index for non-local projection operator          447
 Maximum index for augmentation-charges          402 (set IRDMAX)


--------------------------------------------------------------------------------------------------------


 First call to EWALD:  gamma=   0.182
 Maximum number of real-space cells 4x 4x 1
 Maximum number of reciprocal cells 2x 2x 7

    FEWALD:  cpu time      0.0020: real time      0.0021


--------------------------------------- Ionic step        1  -------------------------------------------




--------------------------------------- Iteration      1(   1)  ---------------------------------------


    POTLOK:  cpu time      0.0368: real time      0.0418
    SETDIJ:  cpu time      0.8443: real time      0.8479
     EDDAV:  cpu time      0.3998: real time      0.4502
       DOS:  cpu time      0.0010: real time      0.0010
    --------------------------------------------
      LOOP:  cpu time      1.2820: real time      1.3409

 eigenvalue-minimisations  :   760
 total energy-change (2. order) : 0.4370604E+04  (-0.1065947E+05)
 number of electron     282.0000000 magnetization       8.0000000
 augmentation part      282.0000000 magnetization       8.0000000

 DIPCOR: dipole corrections for dipol
 direction  3 min pos   213,
 dipolmoment           0.000000      0.000000      0.000198 electrons x Angstroem
 Tr[quadrupol]     -1789.216513

 energy correction for charged system         0.000000 eV
 dipol+quadrupol energy correction           -0.000000 eV
 added-field ion interaction          0.008079 eV  (added to PSCEN)


 Free energy of the ion-electron system (eV)
  ---------------------------------------------------
  alpha Z        PSCENC =       575.29197329
  Ewald energy   TEWEN  =    142367.13300268
  -Hartree energ DENC   =   -166559.79506869
  -exchange      EXHF   =         0.00000000
  -V(xc)+E(xc)   XCENC  =      1178.25468787
  PAW double counting   =     21253.28231947   -21672.43951673
  entropy T*S    EENTRO =        -0.28315637
  eigenvalues    EBANDS =       204.94254221
  atomic energy  EATOM  =     27024.21734940
  Solvation  Ediel_sol  =         0.00000000
  ---------------------------------------------------
  free energy    TOTEN  =      4370.60413311 eV

  energy without entropy =     4370.88728949  energy(sigma->0) =     4370.74571130


--------------------------------------------------------------------------------------------------------




--------------------------------------- Iteration      1(   2)  ---------------------------------------


     EDDAV:  cpu time      0.3684: real time      0.3776
       DOS:  cpu time      0.0003: real time      0.0003
    --------------------------------------------
      LOOP:  cpu time      0.3687: real time      0.3778

 eigenvalue-minimisations  :   780
 total energy-change (2. order) :-0.3418809E+04  (-0.3137149E+04)
 number of electron     282.0000000 magnetization       8.0000000
 augmentation part      282.0000000 magnetization       8.0000000

 DIPCOR: dipole corrections for dipol
 direction  3 min pos   213,
 dipolmoment           0.000000      0.000000      0.000198 electrons x Angstroem
 Tr[quadrupol]     -1789.216513

 energy correction for charged system         0.000000 eV
 dipol+quadrupol energy correction           -0.000000 eV
 added-field ion interaction          0.008079 eV  (added to PSCEN)


 Free energy of the ion-electron system (eV)
  ---------------------------------------------------
  alpha Z        PSCENC =       575.29197329
  Ewald energy   TEWEN  =    142367.13300268
  -Hartree energ DENC   =   -166559.79506869
  -exchange      EXHF   =         0.00000000
  -V(xc)+E(xc)   XCENC  =      1178.25468787
  PAW double counting   =     21253.28231947   -21672.43951673
  entropy T*S    EENTRO =        -0.60708019
  eigenvalues    EBANDS =     -3213.54253232
  atomic energy  EATOM  =     27024.21734940
  Solvation  Ediel_sol  =         0.00000000
  ---------------------------------------------------
  free energy    TOTEN  =       951.79513478 eV

  energy without entropy =      952.40221497  energy(sigma->0) =      952.09867487


--------------------------------------------------------------------------------------------------------




--------------------------------------- Iteration      1(   3)  ---------------------------------------


     EDDAV:  cpu time      0.4511: real time      0.4606
       DOS:  cpu time      0.0003: real time      0.0003
    --------------------------------------------
      LOOP:  cpu time      0.4514: real time      0.4609

 eigenvalue-minimisations  :  1000
 total energy-change (2. order) :-0.1114113E+04  (-0.1065806E+04)
 number of electron     282.0000000 magnetization       8.0000000
 augmentation part      282.0000000 magnetization       8.0000000

 DIPCOR: dipole corrections for dipol
 direction  3 min pos   213,
 dipolmoment           0.000000      0.000000      0.000198 electrons x Angstroem
 Tr[quadrupol]     -1789.216513

 energy correction for charged system         0.000000 eV
 dipol+quadrupol energy correction           -0.000000 eV
 added-field ion interaction          0.008079 eV  (added to PSCEN)


 Free energy of the ion-electron system (eV)
  ---------------------------------------------------
  alpha Z        PSCENC =       575.29197329
  Ewald energy   TEWEN  =    142367.13300268
  -Hartree energ DENC   =   -166559.79506869
  -exchange      EXHF   =         0.00000000
  -V(xc)+E(xc)   XCENC  =      1178.25468787
  PAW double counting   =     21253.28231947   -21672.43951673
  entropy T*S    EENTRO =        -1.23324399
  eigenvalues    EBANDS =     -4327.02938021
  atomic energy  EATOM  =     27024.21734940
  Solvation  Ediel_sol  =         0.00000000
  ---------------------------------------------------
  free energy    TOTEN  =      -162.31787692 eV

  energy without entropy =     -161.08463293  energy(sigma->0) =     -161.70125492


--------------------------------------------------------------------------------------------------------




--------------------------------------- Iteration      1(   4)  ---------------------------------------


     EDDAV:  cpu time      0.4943: real time      0.5032
       DOS:  cpu time      0.0003: real time      0.0003
    --------------------------------------------
      LOOP:  cpu time      0.4946: real time      0.5035

 eigenvalue-minimisations  :  1120
 total energy-change (2. order) :-0.1791310E+03  (-0.1747865E+03)
 number of electron     282.0000000 magnetization       8.0000000
 augmentation part      282.0000000 magnetization       8.0000000

 DIPCOR: dipole corrections for dipol
 direction  3 min pos   213,
 dipolmoment           0.000000      0.000000      0.000198 electrons x Angstroem
 Tr[quadrupol]     -1789.216513

 energy correction for charged system         0.000000 eV
 dipol+quadrupol energy correction           -0.000000 eV
 added-field ion interaction          0.008079 eV  (added to PSCEN)


 Free energy of the ion-electron system (eV)
  ---------------------------------------------------
  alpha Z        PSCENC =       575.29197329
  Ewald energy   TEWEN  =    142367.13300268
  -Hartree energ DENC   =   -166559.79506869
  -exchange      EXHF   =         0.00000000
  -V(xc)+E(xc)   XCENC  =      1178.25468787
  PAW double counting   =     21253.28231947   -21672.43951673
  entropy T*S    EENTRO =        -1.49846994
  eigenvalues    EBANDS =     -4505.89511782
  atomic energy  EATOM  =     27024.21734940
  Solvation  Ediel_sol  =         0.00000000
  ---------------------------------------------------
  free energy    TOTEN  =      -341.44884048 eV

  energy without entropy =     -339.95037054  energy(sigma->0) =     -340.69960551


--------------------------------------------------------------------------------------------------------




--------------------------------------- Iteration      1(   5)  ---------------------------------------


     EDDAV:  cpu time      0.6004: real time      0.6091
       DOS:  cpu time      0.0004: real time      0.0004
    CHARGE:  cpu time      0.0385: real time      0.0390
    MIXING:  cpu time      0.0032: real time      0.0033
    --------------------------------------------
      LOOP:  cpu time      0.6426: real time      0.6519

 eigenvalue-minimisations  :  1340
 total energy-change (2. order) :-0.1293215E+02  (-0.1211489E+02)
 number of electron     282.0000000 magnetization       7.6393073
 augmentation part       48.6996406 magnetization       6.2782010

 DIPCOR: dipole corrections for dipol
 direction  3 min pos   213,
 dipolmoment           0.000000      0.000000      0.000198 electrons x Angstroem
 Tr[quadrupol]     -1789.216513

 energy correction for charged system         0.000000 eV
 dipol+quadrupol energy correction           -0.000000 eV
 added-field ion interaction          0.008079 eV  (added to PSCEN)


 Broyden mixing:
  rms(total) = 0.85304E+01    rms(broyden)= 0.85293E+01
  rms(prec ) = 0.91396E+01
  weight for this iteration     100.00

 Free energy of the ion-electron system (eV)
  ---------------------------------------------------
  alpha Z        PSCENC =       575.29197329
  Ewald energy   TEWEN  =    142367.13300268
  -Hartree energ DENC   =   -166559.79506869
  -exchange      EXHF   =         0.00000000
  -V(xc)+E(xc)   XCENC  =      1178.25468787
  PAW double counting   =     21253.28231947   -21672.43951673
  entropy T*S    EENTRO =        -1.35855880
  eigenvalues    EBANDS =     -4518.96717577
  atomic energy  EATOM  =     27024.21734940
  Solvation  Ediel_sol  =         0.00000000
  ---------------------------------------------------
  free energy    TOTEN  =      -354.38098729 eV

  energy without entropy =     -353.02242849  energy(sigma->0) =     -353.70170789


--------------------------------------------------------------------------------------------------------




--------------------------------------- Iteration      1(   6)  ---------------------------------------


    POTLOK:  cpu time      0.0318: real time      0.0397
    SETDIJ:  cpu time      0.9051: real time      0.9072
     EDDAV:  cpu time      0.5490: real time      0.5503
       DOS:  cpu time      0.0003: real time      0.0003
    CHARGE:  cpu time      0.0290: real time      0.0290
    MIXING:  cpu time      0.0023: real time      0.0068
    --------------------------------------------
      LOOP:  cpu time      1.5176: real time      1.5334

 eigenvalue-minimisations  :  1240
 total energy-change (2. order) :-0.2345759E+03  (-0.5771566E+03)
 number of electron     281.9999793 magnetization       7.5875247
 augmentation part       78.1223096 magnetization       6.0551943

 DIPCOR: dipole corrections for dipol
 direction  3 min pos   207,
 dipolmoment           0.000000      0.000000      0.822902 electrons x Angstroem
 Tr[quadrupol]     -1821.022367

 energy correction for charged system         0.000000 eV
 dipol+quadrupol energy correction           -0.066186 eV
 added-field ion interaction          6.112690 eV  (added to PSCEN)


 Broyden mixing:
  rms(total) = 0.30757E+02    rms(broyden)= 0.30755E+02
  rms(prec ) = 0.31923E+02
  weight for this iteration     100.00

 eigenvalues of (default mixing * dielectric matrix)
  average eigenvalue GAMMA=   0.0945
  0.0945

 Free energy of the ion-electron system (eV)
  ---------------------------------------------------
  alpha Z        PSCENC =       581.33039804
  Ewald energy   TEWEN  =    142367.13300268
  -Hartree energ DENC   =   -167087.79006613
  -exchange      EXHF   =         0.00000000
  -V(xc)+E(xc)   XCENC  =      1175.58725692
  PAW double counting   =     22522.60057146   -22924.90555561
  entropy T*S    EENTRO =        -0.25126247
  eigenvalues    EBANDS =     -4246.87860936
  atomic energy  EATOM  =     27024.21734940
  Solvation  Ediel_sol  =         0.00000000
  ---------------------------------------------------
  free energy    TOTEN  =      -588.95691507 eV

  energy without entropy =     -588.70565260  energy(sigma->0) =     -588.83128384


--------------------------------------------------------------------------------------------------------




--------------------------------------- Iteration      1(   7)  ---------------------------------------


    POTLOK:  cpu time      0.0297: real time      0.0372
    SETDIJ:  cpu time      0.9048: real time      0.9069
     EDDAV:  cpu time      0.6114: real time      0.6126
       DOS:  cpu time      0.0003: real time      0.0003
    CHARGE:  cpu time      0.0292: real time      0.0293
    MIXING:  cpu time      0.0014: real time      0.0027
    --------------------------------------------
      LOOP:  cpu time      1.5768: real time      1.5888

 eigenvalue-minimisations  :  1400
 total energy-change (2. order) : 0.1671587E+03  (-0.1306814E+03)
 number of electron     281.9999848 magnetization       7.4817087
 augmentation part       69.8924523 magnetization       5.7678001

 DIPCOR: dipole corrections for dipol
 direction  3 min pos   205,
 dipolmoment           0.000000      0.000000      0.174516 electrons x Angstroem
 Tr[quadrupol]     -1808.482744

 energy correction for charged system         0.000000 eV
 dipol+quadrupol energy correction           -0.002977 eV
 added-field ion interaction         -0.647105 eV  (added to PSCEN)


 Broyden mixing:
  rms(total) = 0.15612E+02    rms(broyden)= 0.15611E+02
  rms(prec ) = 0.16644E+02
  weight for this iteration     100.00

 eigenvalues of (default mixing * dielectric matrix)
  average eigenvalue GAMMA=   0.2558
  0.2558  0.2558

 Free energy of the ion-electron system (eV)
  ---------------------------------------------------
  alpha Z        PSCENC =       574.63381242
  Ewald energy   TEWEN  =    142367.13300268
  -Hartree energ DENC   =   -166846.16403101
  -exchange      EXHF   =         0.00000000
  -V(xc)+E(xc)   XCENC  =      1179.12518366
  PAW double counting   =     24223.38579802   -24645.54174131
  entropy T*S    EENTRO =        -0.63913264
  eigenvalues    EBANDS =     -4297.94845441
  atomic energy  EATOM  =     27024.21734940
  Solvation  Ediel_sol  =         0.00000000
  ---------------------------------------------------
  free energy    TOTEN  =      -421.79821319 eV

  energy without entropy =     -421.15908055  energy(sigma->0) =     -421.47864687


--------------------------------------------------------------------------------------------------------




--------------------------------------- Iteration      1(   8)  ---------------------------------------


    POTLOK:  cpu time      0.0296: real time      0.0383
    SETDIJ:  cpu time      0.9053: real time      0.9074
     EDDAV:  cpu time      0.5665: real time      0.5678
       DOS:  cpu time      0.0005: real time      0.0005
    CHARGE:  cpu time      0.0300: real time      0.0301
    MIXING:  cpu time      0.0015: real time      0.0025
    --------------------------------------------
      LOOP:  cpu time      1.5335: real time      1.5465

 eigenvalue-minimisations  :  1220
 total energy-change (2. order) :-0.9491033E+02  (-0.7894825E+02)
 number of electron     281.9999948 magnetization       7.4568803
 augmentation part       58.5042696 magnetization       4.8754182

 DIPCOR: dipole corrections for dipol
 direction  3 min pos   213,
 dipolmoment           0.000000      0.000000      2.060537 electrons x Angstroem
 Tr[quadrupol]     -1802.699865

 energy correction for charged system         0.000000 eV
 dipol+quadrupol energy correction           -0.414985 eV
 added-field ion interaction         84.145855 eV  (added to PSCEN)


 Broyden mixing:
  rms(total) = 0.18085E+02    rms(broyden)= 0.18083E+02
  rms(prec ) = 0.22375E+02
  weight for this iteration     100.00

 eigenvalues of (default mixing * dielectric matrix)
  average eigenvalue GAMMA=   0.2038
  0.2675  0.2675  0.0765

 Free energy of the ion-electron system (eV)
  ---------------------------------------------------
  alpha Z        PSCENC =       659.01476425
  Ewald energy   TEWEN  =    142367.13300268
  -Hartree energ DENC   =   -166769.08520807
  -exchange      EXHF   =         0.00000000
  -V(xc)+E(xc)   XCENC  =      1183.35919069
  PAW double counting   =     28285.51107905   -28723.02241648
  entropy T*S    EENTRO =        -0.28351536
  eigenvalues    EBANDS =     -4543.55279404
  atomic energy  EATOM  =     27024.21734940
  Solvation  Ediel_sol  =         0.00000000
  ---------------------------------------------------
  free energy    TOTEN  =      -516.70854789 eV

  energy without entropy =     -516.42503253  energy(sigma->0) =     -516.56679021


--------------------------------------------------------------------------------------------------------




--------------------------------------- Iteration      1(   9)  ---------------------------------------


    POTLOK:  cpu time      0.0309: real time      0.0390
    SETDIJ:  cpu time      0.9057: real time      0.9078
     EDDAV:  cpu time      0.5236: real time      0.5246
       DOS:  cpu time      0.0003: real time      0.0003
    CHARGE:  cpu time      0.0289: real time      0.0289
    MIXING:  cpu time      0.0013: real time      0.0013
    --------------------------------------------
      LOOP:  cpu time      1.4908: real time      1.5019

 eigenvalue-minimisations  :  1200
 total energy-change (2. order) : 0.1812500E+03  (-0.3952348E+02)
 number of electron     281.9999938 magnetization       7.3407804
 augmentation part       54.1526655 magnetization       6.4482981

 DIPCOR: dipole corrections for dipol
 direction  3 min pos   216,
 dipolmoment           0.000000      0.000000     -0.307675 electrons x Angstroem
 Tr[quadrupol]     -1799.124222

 energy correction for charged system         0.000000 eV
 dipol+quadrupol energy correction           -0.009252 eV
 added-field ion interaction        -17.703991 eV  (added to PSCEN)


 Broyden mixing:
  rms(total) = 0.86691E+01    rms(broyden)= 0.86669E+01
  rms(prec ) = 0.94104E+01
  weight for this iteration     100.00

 eigenvalues of (default mixing * dielectric matrix)
  average eigenvalue GAMMA=   0.2329
  0.3898  0.2145  0.2145  0.1125

 Free energy of the ion-electron system (eV)
  ---------------------------------------------------
  alpha Z        PSCENC =       557.57065059
  Ewald energy   TEWEN  =    142367.13300268
  -Hartree energ DENC   =   -166786.78411120
  -exchange      EXHF   =         0.00000000
  -V(xc)+E(xc)   XCENC  =      1183.58864364
  PAW double counting   =     29185.10008504   -29625.11483553
  entropy T*S    EENTRO =        -0.28073629
  eigenvalues    EBANDS =     -4240.88857365
  atomic energy  EATOM  =     27024.21734940
  Solvation  Ediel_sol  =         0.00000000
  ---------------------------------------------------
  free energy    TOTEN  =      -335.45852533 eV

  energy without entropy =     -335.17778904  energy(sigma->0) =     -335.31815718


--------------------------------------------------------------------------------------------------------




--------------------------------------- Iteration      1(  10)  ---------------------------------------


    POTLOK:  cpu time      0.0368: real time      0.0370
    SETDIJ:  cpu time      0.9046: real time      0.9066
     EDDAV:  cpu time      0.5032: real time      0.5042
       DOS:  cpu time      0.0003: real time      0.0003
    CHARGE:  cpu time      0.0292: real time      0.0292
    MIXING:  cpu time      0.0013: real time      0.0013
    --------------------------------------------
      LOOP:  cpu time      1.4753: real time      1.4787

 eigenvalue-minimisations  :  1140
 total energy-change (2. order) :-0.1401363E+03  (-0.4169752E+02)
 number of electron     281.9999989 magnetization       7.2846967
 augmentation part       52.3165961 magnetization       4.7740084

 DIPCOR: dipole corrections for dipol
 direction  3 min pos   208,
 dipolmoment           0.000000      0.000000      2.359398 electrons x Angstroem
 Tr[quadrupol]     -1808.909957

 energy correction for charged system         0.000000 eV
 dipol+quadrupol energy correction           -0.544094 eV
 added-field ion interaction         30.663484 eV  (added to PSCEN)


 Broyden mixing:
  rms(total) = 0.12567E+02    rms(broyden)= 0.12565E+02
  rms(prec ) = 0.17170E+02
  weight for this iteration     100.00

 eigenvalues of (default mixing * dielectric matrix)
  average eigenvalue GAMMA=   0.2041
  0.3950  0.2299  0.2299  0.1286  0.0370

 Free energy of the ion-electron system (eV)
  ---------------------------------------------------
  alpha Z        PSCENC =       605.40328491
  Ewald energy   TEWEN  =    142367.13300268
  -Hartree energ DENC   =   -167106.66960696
  -exchange      EXHF   =         0.00000000
  -V(xc)+E(xc)   XCENC  =      1186.06125230
  PAW double counting   =     30001.10222592   -30446.36835950
  entropy T*S    EENTRO =        -0.48603411
  eigenvalues    EBANDS =     -4105.98797662
  atomic energy  EATOM  =     27024.21734940
  Solvation  Ediel_sol  =         0.00000000
  ---------------------------------------------------
  free energy    TOTEN  =      -475.59486199 eV

  energy without entropy =     -475.10882788  energy(sigma->0) =     -475.35184494


--------------------------------------------------------------------------------------------------------




--------------------------------------- Iteration      1(  11)  ---------------------------------------


    POTLOK:  cpu time      0.0296: real time      0.0382
    SETDIJ:  cpu time      0.9044: real time      0.9065
     EDDAV:  cpu time      0.5911: real time      0.5923
       DOS:  cpu time      0.0003: real time      0.0003
    CHARGE:  cpu time      0.0287: real time      0.0288
    MIXING:  cpu time      0.0013: real time      0.0013
    --------------------------------------------
      LOOP:  cpu time      1.5555: real time      1.5674

 eigenvalue-minimisations  :  1360
 total energy-change (2. order) : 0.8685616E+02  (-0.1208148E+02)
 number of electron     281.9999954 magnetization       7.1065386
 augmentation part       49.4477135 magnetization       5.5456034

 DIPCOR: dipole corrections for dipol
 direction  3 min pos   210,
 dipolmoment           0.000000      0.000000      1.448278 electrons x Angstroem
 Tr[quadrupol]     -1808.692694

 energy correction for charged system         0.000000 eV
 dipol+quadrupol energy correction           -0.205010 eV
 added-field ion interaction         34.950626 eV  (added to PSCEN)


 Broyden mixing:
  rms(total) = 0.85160E+01    rms(broyden)= 0.85134E+01
  rms(prec ) = 0.10594E+02
  weight for this iteration     100.00

 eigenvalues of (default mixing * dielectric matrix)
  average eigenvalue GAMMA=   0.2488
  0.6691  0.2231  0.2231  0.1525  0.1525  0.0723

 Free energy of the ion-electron system (eV)
  ---------------------------------------------------
  alpha Z        PSCENC =       610.02951003
  Ewald energy   TEWEN  =    142367.13300268
  -Hartree energ DENC   =   -167106.70858349
  -exchange      EXHF   =         0.00000000
  -V(xc)+E(xc)   XCENC  =      1186.12754361
  PAW double counting   =     31381.41672068   -31825.54293490
  entropy T*S    EENTRO =        -0.16350069
  eigenvalues    EBANDS =     -4025.24781087
  atomic energy  EATOM  =     27024.21734940
  Solvation  Ediel_sol  =         0.00000000
  ---------------------------------------------------
  free energy    TOTEN  =      -388.73870356 eV

  energy without entropy =     -388.57520288  energy(sigma->0) =     -388.65695322


--------------------------------------------------------------------------------------------------------




--------------------------------------- Iteration      1(  12)  ---------------------------------------


    POTLOK:  cpu time      0.0298: real time      0.0379
    SETDIJ:  cpu time      0.9034: real time      0.9054
     EDDAV:  cpu time      0.4398: real time      0.4406
       DOS:  cpu time      0.0003: real time      0.0003
    CHARGE:  cpu time      0.0292: real time      0.0292
    MIXING:  cpu time      0.0014: real time      0.0014
    --------------------------------------------
      LOOP:  cpu time      1.4037: real time      1.4149

 eigenvalue-minimisations  :   980
 total energy-change (2. order) : 0.4459830E+02  (-0.1402911E+02)
 number of electron     282.0000003 magnetization       7.0970789
 augmentation part       56.3549210 magnetization       4.9773049

 DIPCOR: dipole corrections for dipol
 direction  3 min pos   202,
 dipolmoment           0.000000      0.000000      1.534585 electrons x Angstroem
 Tr[quadrupol]     -1798.942239

 energy correction for charged system         0.000000 eV
 dipol+quadrupol energy correction           -0.230172 eV
 added-field ion interaction        -31.324454 eV  (added to PSCEN)


 Broyden mixing:
  rms(total) = 0.76772E+01    rms(broyden)= 0.76751E+01
  rms(prec ) = 0.11599E+02
  weight for this iteration     100.00

 eigenvalues of (default mixing * dielectric matrix)
  average eigenvalue GAMMA=   0.2384
  0.3916  0.3916  0.2726  0.2726  0.1377  0.1377  0.0653

 Free energy of the ion-electron system (eV)
  ---------------------------------------------------
  alpha Z        PSCENC =       543.72926811
  Ewald energy   TEWEN  =    142367.13300268
  -Hartree energ DENC   =   -166888.80943671
  -exchange      EXHF   =         0.00000000
  -V(xc)+E(xc)   XCENC  =      1188.55841126
  PAW double counting   =     31037.39420688   -31482.48680723
  entropy T*S    EENTRO =        -0.43416992
  eigenvalues    EBANDS =     -4133.44222765
  atomic energy  EATOM  =     27024.21734940
  Solvation  Ediel_sol  =         0.00000000
  ---------------------------------------------------
  free energy    TOTEN  =      -344.14040317 eV

  energy without entropy =     -343.70623326  energy(sigma->0) =     -343.92331821


--------------------------------------------------------------------------------------------------------




--------------------------------------- Iteration      1(  13)  ---------------------------------------


    POTLOK:  cpu time      0.0296: real time      0.0384
    SETDIJ:  cpu time      0.9066: real time      0.9087
     EDDAV:  cpu time      0.5370: real time      0.5380
       DOS:  cpu time      0.0007: real time      0.0007
    CHARGE:  cpu time      0.0297: real time      0.0298
    MIXING:  cpu time      0.0017: real time      0.0017
    --------------------------------------------
      LOOP:  cpu time      1.5052: real time      1.5172

 eigenvalue-minimisations  :  1220
 total energy-change (2. order) : 0.5774281E+02  (-0.1925591E+02)
 number of electron     281.9999941 magnetization       7.0326341
 augmentation part       50.1028927 magnetization       5.2723504

 DIPCOR: dipole corrections for dipol
 direction  3 min pos   204,
 dipolmoment           0.000000      0.000000      0.381310 electrons x Angstroem
 Tr[quadrupol]     -1805.074884

 energy correction for charged system         0.000000 eV
 dipol+quadrupol energy correction           -0.014211 eV
 added-field ion interaction         -3.537073 eV  (added to PSCEN)


 Broyden mixing:
  rms(total) = 0.46825E+01    rms(broyden)= 0.46781E+01
  rms(prec ) = 0.52900E+01
  weight for this iteration     100.00

 eigenvalues of (default mixing * dielectric matrix)
  average eigenvalue GAMMA=   0.2439
  0.4813  0.4813  0.2459  0.2459  0.1478  0.1478  0.1361  0.0652

 Free energy of the ion-electron system (eV)
  ---------------------------------------------------
  alpha Z        PSCENC =       571.73260999
  Ewald energy   TEWEN  =    142367.13300268
  -Hartree energ DENC   =   -167072.38315859
  -exchange      EXHF   =         0.00000000
  -V(xc)+E(xc)   XCENC  =      1189.12073917
  PAW double counting   =     28930.98379081   -29377.53573097
  entropy T*S    EENTRO =        -0.50412931
  eigenvalues    EBANDS =     -3919.16207022
  atomic energy  EATOM  =     27024.21734940
  Solvation  Ediel_sol  =         0.00000000
  ---------------------------------------------------
  free energy    TOTEN  =      -286.39759704 eV

  energy without entropy =     -285.89346773  energy(sigma->0) =     -286.14553238


--------------------------------------------------------------------------------------------------------




--------------------------------------- Iteration      1(  14)  ---------------------------------------


    POTLOK:  cpu time      0.0308: real time      0.0389
    SETDIJ:  cpu time      0.9043: real time      0.9064
     EDDAV:  cpu time      0.4772: real time      0.4781
       DOS:  cpu time      0.0003: real time      0.0003
    CHARGE:  cpu time      0.0296: real time      0.0297
    MIXING:  cpu time      0.0016: real time      0.0016
    --------------------------------------------
      LOOP:  cpu time      1.4438: real time      1.4550

 eigenvalue-minimisations  :  1080
 total energy-change (2. order) : 0.5813840E+01  (-0.7432134E+01)
 number of electron     281.9999918 magnetization       7.0052987
 augmentation part       50.1787186 magnetization       4.9085807

 DIPCOR: dipole corrections for dipol
 direction  3 min pos   196,
 dipolmoment           0.000000      0.000000      0.276908 electrons x Angstroem
 Tr[quadrupol]     -1803.174648

 energy correction for charged system         0.000000 eV
 dipol+quadrupol energy correction           -0.007494 eV
 added-field ion interaction        -14.903437 eV  (added to PSCEN)


 Broyden mixing:
  rms(total) = 0.42543E+01    rms(broyden)= 0.42514E+01
  rms(prec ) = 0.49193E+01
  weight for this iteration     100.00

 eigenvalues of (default mixing * dielectric matrix)
  average eigenvalue GAMMA=   0.2330
  0.5011  0.5011  0.2409  0.2409  0.1619  0.1619  0.0657  0.1118  0.1118

 Free energy of the ion-electron system (eV)
  ---------------------------------------------------
  alpha Z        PSCENC =       560.37296297
  Ewald energy   TEWEN  =    142367.13300268
  -Hartree energ DENC   =   -167019.58630126
  -exchange      EXHF   =         0.00000000
  -V(xc)+E(xc)   XCENC  =      1189.12797878
  PAW double counting   =     28848.04434542   -29293.93536071
  entropy T*S    EENTRO =        -0.70254527
  eigenvalues    EBANDS =     -3955.25518876
  atomic energy  EATOM  =     27024.21734940
  Solvation  Ediel_sol  =         0.00000000
  ---------------------------------------------------
  free energy    TOTEN  =      -280.58375675 eV

  energy without entropy =     -279.88121148  energy(sigma->0) =     -280.23248412


--------------------------------------------------------------------------------------------------------




--------------------------------------- Iteration      1(  15)  ---------------------------------------


    POTLOK:  cpu time      0.0300: real time      0.0378
    SETDIJ:  cpu time      0.9050: real time      0.9071
     EDDAV:  cpu time      0.5678: real time      0.5689
       DOS:  cpu time      0.0003: real time      0.0003
    CHARGE:  cpu time      0.0293: real time      0.0294
    MIXING:  cpu time      0.0015: real time      0.0015
    --------------------------------------------
      LOOP:  cpu time      1.5338: real time      1.5448

 eigenvalue-minimisations  :  1300
 total energy-change (2. order) : 0.6605662E+00  (-0.2256626E+01)
 number of electron     281.9999899 magnetization       6.9537467
 augmentation part       49.9406264 magnetization       5.0273260

 DIPCOR: dipole corrections for dipol
 direction  3 min pos   208,
 dipolmoment           0.000000      0.000000      0.076598 electrons x Angstroem
 Tr[quadrupol]     -1803.926650

 energy correction for charged system         0.000000 eV
 dipol+quadrupol energy correction           -0.000573 eV
 added-field ion interaction          0.995491 eV  (added to PSCEN)


 Broyden mixing:
  rms(total) = 0.39864E+01    rms(broyden)= 0.39848E+01
  rms(prec ) = 0.47807E+01
  weight for this iteration     100.00

 eigenvalues of (default mixing * dielectric matrix)
  average eigenvalue GAMMA=   0.2589
  0.5895  0.5895  0.2548  0.2548  0.2455  0.2455  0.1333  0.1333  0.0652  0.0773

 Free energy of the ion-electron system (eV)
  ---------------------------------------------------
  alpha Z        PSCENC =       576.27881154
  Ewald energy   TEWEN  =    142367.13300268
  -Hartree energ DENC   =   -167027.29902489
  -exchange      EXHF   =         0.00000000
  -V(xc)+E(xc)   XCENC  =      1189.05055427
  PAW double counting   =     29052.95883357   -29499.05946177
  entropy T*S    EENTRO =        -0.64279759
  eigenvalues    EBANDS =     -3962.56045774
  atomic energy  EATOM  =     27024.21734940
  Solvation  Ediel_sol  =         0.00000000
  ---------------------------------------------------
  free energy    TOTEN  =      -279.92319053 eV

  energy without entropy =     -279.28039294  energy(sigma->0) =     -279.60179173


--------------------------------------------------------------------------------------------------------




--------------------------------------- Iteration      1(  16)  ---------------------------------------


    POTLOK:  cpu time      0.0296: real time      0.0381
    SETDIJ:  cpu time      0.9052: real time      0.9073
     EDDAV:  cpu time      0.4538: real time      0.4547
       DOS:  cpu time      0.0003: real time      0.0003
    CHARGE:  cpu time      0.0295: real time      0.0295
    MIXING:  cpu time      0.0016: real time      0.0016
    --------------------------------------------
      LOOP:  cpu time      1.4200: real time      1.4315

 eigenvalue-minimisations  :  1020
 total energy-change (2. order) : 0.1577746E+01  (-0.2028178E+01)
 number of electron     281.9999947 magnetization       6.9320972
 augmentation part       49.8683342 magnetization       4.3356504

 DIPCOR: dipole corrections for dipol
 direction  3 min pos   214,
 dipolmoment           0.000000      0.000000     -0.034656 electrons x Angstroem
 Tr[quadrupol]     -1803.052248

 energy correction for charged system         0.000000 eV
 dipol+quadrupol energy correction           -0.000117 eV
 added-field ion interaction         -1.608204 eV  (added to PSCEN)


 Broyden mixing:
  rms(total) = 0.30212E+01    rms(broyden)= 0.30185E+01
  rms(prec ) = 0.32714E+01
  weight for this iteration     100.00

 eigenvalues of (default mixing * dielectric matrix)
  average eigenvalue GAMMA=   0.2669
  0.6206  0.6206  0.2894  0.2894  0.2536  0.2536  0.1922  0.1379  0.1379  0.0654
  0.0752

 Free energy of the ion-electron system (eV)
  ---------------------------------------------------
  alpha Z        PSCENC =       573.67557259
  Ewald energy   TEWEN  =    142367.13300268
  -Hartree energ DENC   =   -167004.54103239
  -exchange      EXHF   =         0.00000000
  -V(xc)+E(xc)   XCENC  =      1188.58277642
  PAW double counting   =     29136.32024536   -29582.37854097
  entropy T*S    EENTRO =        -0.59330938
  eigenvalues    EBANDS =     -3980.76150874
  atomic energy  EATOM  =     27024.21734940
  Solvation  Ediel_sol  =         0.00000000
[...]
   12        2.003   5.727   0.555   0.254   8.539
   13        2.002   5.717   0.557   0.261   8.536
   14        2.002   5.717   0.557   0.261   8.536
   15        1.606   3.418   0.000   0.000   5.024
   16        1.606   3.418   0.000   0.000   5.024
   17        1.564   3.519   0.000   0.000   5.083
   18        1.564   3.519   0.000   0.000   5.083
   19        1.590   3.495   0.000   0.000   5.085
   20        1.590   3.495   0.000   0.000   5.085
   21        1.588   3.507   0.000   0.000   5.095
   22        1.588   3.507   0.000   0.000   5.095
   23        1.565   3.534   0.000   0.000   5.099
   24        1.565   3.534   0.000   0.000   5.099
   25        1.576   3.488   0.000   0.000   5.064
   26        1.576   3.488   0.000   0.000   5.064
   27        1.574   3.496   0.000   0.000   5.071
   28        1.574   3.496   0.000   0.000   5.071
   29        1.518   3.557   0.000   0.000   5.074
   30        1.518   3.557   0.000   0.000   5.074
   31        1.585   3.436   0.000   0.000   5.021
   32        1.585   3.436   0.000   0.000   5.021
   33        1.595   3.394   0.000   0.000   4.989
   34        1.595   3.394   0.000   0.000   4.989
--------------------------------------------------
tot         45.771 154.304  35.666   1.524 237.266



 magnetization (x)

# of ion       s       p       d       f       tot
--------------------------------------------------
    1       -0.006  -0.002   0.183   0.000   0.175
    2       -0.006  -0.002   0.183   0.000   0.175
    3        0.019   0.024   2.642   0.000   2.685
    4        0.019   0.024   2.642   0.000   2.685
    5        0.019   0.024   2.639   0.000   2.683
    6        0.019   0.024   2.639   0.000   2.683
    7       -0.007  -0.003  -0.341   0.000  -0.351
    8       -0.007  -0.003  -0.341   0.000  -0.351
    9       -0.001  -0.001   0.012   0.011   0.021
   10       -0.001  -0.001   0.012   0.011   0.021
   11        0.000  -0.001   0.012   0.014   0.026
   12        0.000  -0.001   0.012   0.014   0.026
   13        0.000  -0.000   0.008   0.005   0.014
   14        0.000  -0.000   0.008   0.005   0.014
   15       -0.001   0.010   0.000   0.000   0.009
   16       -0.001   0.010   0.000   0.000   0.009
   17       -0.001  -0.007   0.000   0.000  -0.008
   18       -0.001  -0.007   0.000   0.000  -0.008
   19        0.001  -0.003   0.000   0.000  -0.002
   20        0.001  -0.003   0.000   0.000  -0.002
   21        0.001  -0.003   0.000   0.000  -0.002
   22        0.001  -0.003   0.000   0.000  -0.002
   23       -0.000   0.031   0.000   0.000   0.031
   24       -0.000   0.031   0.000   0.000   0.031
   25        0.001  -0.015   0.000   0.000  -0.014
   26        0.001  -0.015   0.000   0.000  -0.014
   27        0.000  -0.008   0.000   0.000  -0.008
   28        0.000  -0.008   0.000   0.000  -0.008
   29        0.001   0.009   0.000   0.000   0.010
   30        0.001   0.009   0.000   0.000   0.010
   31       -0.000   0.012   0.000   0.000   0.012
   32       -0.000   0.012   0.000   0.000   0.012
   33        0.001   0.048   0.000   0.000   0.049
   34        0.001   0.048   0.000   0.000   0.049
--------------------------------------------------
tot          0.058   0.228  10.314   0.060  10.659
 
    CHARGE:  cpu time      0.0284: real time      0.0285
    FORLOC:  cpu time      0.0031: real time      0.0031
    FORNL :  cpu time      0.0652: real time      0.0654
    STRESS:  cpu time      0.2023: real time      0.2027
    FORCOR:  cpu time      0.0310: real time      0.0310
    FORHAR:  cpu time      0.0054: real time      0.0054
    MIXING:  cpu time      0.0032: real time      0.0032
    OFIELD:  cpu time      0.0000: real time      0.0000

  FORCE on cell =-STRESS in cart. coord.  units (eV):
  Direction    XX          YY          ZZ          XY          YZ          ZX
  --------------------------------------------------------------------------------------
  Alpha Z   575.28389   575.28389   575.28389
  Ewald  156413.13577156017.14759************    -0.00000    79.00937    -0.00000
  Hartree162979.03858162887.50189************    -0.00000    36.15776    -0.00000
  E(xc)   -1361.92567 -1363.55190 -1363.58387     0.00000     0.27228     0.00000
  Local  ************************323530.22223     0.00000  -119.83832     0.00000
  n-local   175.25408   170.75320   172.97820     0.00030     2.29581    -0.00004
  augment   608.97037   611.02736   605.58377     0.00000     2.32213     0.00000
  Kinetic  4855.19204  4849.77069  4805.84886    -0.00001     5.64424    -0.00001
  Fock        0.00000     0.00000     0.00000     0.00000     0.00000     0.00000
  -------------------------------------------------------------------------------------
  Total       4.39660    -8.23338   -19.59864     0.00000     5.86326     0.00000
  in kB       7.60962   -14.25030   -33.92126     0.00000    10.14812     0.00000
  external pressure =      -13.52 kB  Pullay stress =        0.00 kB


 VOLUME and BASIS-vectors are now :
 -----------------------------------------------------------------------------
  energy-cutoff  :      400.00
  volume of cell :      925.69
      direct lattice vectors                 reciprocal lattice vectors
     5.536700000  0.000000000  0.000000000     0.180613001  0.000000000  0.000000000
     0.000000000  5.747300000  0.000000000     0.000000000  0.173994745  0.000000000
     0.000000000  0.000000000 29.090392640     0.000000000  0.000000000  0.034375610

  length of vectors
     5.536700000  5.747300000 29.090392640     0.180613001  0.173994745  0.034375610


 FORCES acting on ions
    electron-ion (+dipol)            ewald-force                    non-local-force                 convergence-correction
 -----------------------------------------------------------------------------------------------
   -.246E+03 -.382E+02 0.453E+04   0.244E+03 0.366E+02 -.452E+04   0.803E+00 0.251E+01 -.731E+01   0.272E-01 -.738E-02 -.355E+00
   0.246E+03 -.382E+02 0.453E+04   -.244E+03 0.366E+02 -.452E+04   -.803E+00 0.251E+01 -.731E+01   -.272E-01 -.738E-02 -.355E+00
   0.661E+01 -.948E-01 0.177E+04   -.651E+01 0.136E+00 -.176E+04   -.171E+00 -.890E-01 -.808E+00   -.135E-02 0.604E-04 -.881E+00
   -.661E+01 -.948E-01 0.177E+04   0.651E+01 0.136E+00 -.176E+04   0.171E+00 -.890E-01 -.808E+00   0.135E-02 0.604E-04 -.881E+00
   -.445E+01 0.104E+02 -.129E+04   0.417E+01 -.104E+02 0.129E+04   0.114E+00 -.472E-01 -.357E+00   -.257E-02 0.233E-02 -.822E+00
   0.445E+01 0.104E+02 -.129E+04   -.417E+01 -.104E+02 0.129E+04   -.114E+00 -.472E-01 -.357E+00   0.257E-02 0.233E-02 -.822E+00
   -.786E+02 -.554E+01 -.437E+04   0.746E+02 0.656E+01 0.437E+04   0.290E+01 -.131E+01 0.583E+01   0.186E-01 0.114E-02 -.957E-01
   0.786E+02 -.554E+01 -.437E+04   -.746E+02 0.656E+01 0.437E+04   -.290E+01 -.131E+01 0.583E+01   -.186E-01 0.114E-02 -.957E-01
   0.718E+02 0.494E+02 0.301E+04   -.716E+02 -.487E+02 -.301E+04   0.873E+00 -.177E+01 0.414E+00   0.347E-02 0.586E-02 -.776E+00
   -.718E+02 0.494E+02 0.301E+04   0.716E+02 -.487E+02 -.301E+04   -.873E+00 -.177E+01 0.414E+00   -.347E-02 0.586E-02 -.776E+00
   -.162E+02 -.510E+02 0.227E+03   0.162E+02 0.498E+02 -.226E+03   -.407E+00 0.190E+01 -.419E+00   0.971E-03 0.295E-02 -.762E+00
   0.162E+02 -.510E+02 0.227E+03   -.162E+02 0.498E+02 -.226E+03   0.407E+00 0.190E+01 -.419E+00   -.971E-03 0.295E-02 -.762E+00
   0.173E+02 0.329E+02 -.259E+04   -.165E+02 -.329E+02 0.259E+04   0.137E+00 -.360E+00 -.167E+01   -.251E-02 -.117E-01 -.608E+00
   -.173E+02 0.329E+02 -.259E+04   0.165E+02 -.329E+02 0.259E+04   -.137E+00 -.360E+00 -.167E+01   0.251E-02 -.117E-01 -.608E+00
   -.893E+02 0.222E+02 0.213E+04   0.952E+02 -.245E+02 -.213E+04   -.211E+01 0.221E+01 0.637E+01   -.522E-01 -.248E-02 -.237E+00
   0.893E+02 0.222E+02 0.213E+04   -.952E+02 -.245E+02 -.213E+04   0.211E+01 0.221E+01 0.637E+01   0.522E-01 -.248E-02 -.237E+00
   0.760E+02 -.175E+02 0.165E+04   -.778E+02 0.186E+02 -.165E+04   0.162E+01 -.179E+00 -.345E+01   0.313E-01 0.285E-02 -.539E+00
   -.760E+02 -.175E+02 0.165E+04   0.778E+02 0.186E+02 -.165E+04   -.162E+01 -.179E+00 -.345E+01   -.313E-01 0.285E-02 -.539E+00
   0.697E+02 0.281E+02 0.101E+04   -.745E+02 -.298E+02 -.101E+04   0.516E+00 0.151E+01 -.457E+01   -.774E-02 -.126E-02 -.449E+00
   -.697E+02 0.281E+02 0.101E+04   0.745E+02 -.298E+02 -.101E+04   -.516E+00 0.151E+01 -.457E+01   0.774E-02 -.126E-02 -.449E+00
   0.683E+02 -.283E+02 0.751E+03   -.732E+02 0.297E+02 -.749E+03   -.862E+00 -.222E+01 -.178E+01   -.779E-02 0.120E-02 -.429E+00
   -.683E+02 -.283E+02 0.751E+03   0.732E+02 0.297E+02 -.749E+03   0.862E+00 -.222E+01 -.178E+01   0.779E-02 0.120E-02 -.429E+00
   -.437E+02 0.173E+02 0.111E+03   0.459E+02 -.179E+02 -.109E+03   -.267E+01 -.220E+01 -.460E+01   0.495E-02 0.883E-03 -.407E+00
   0.437E+02 0.173E+02 0.111E+03   -.459E+02 -.179E+02 -.109E+03   0.267E+01 -.220E+01 -.460E+01   -.495E-02 0.883E-03 -.407E+00
   -.500E+02 -.691E+01 -.486E+03   0.530E+02 0.689E+01 0.484E+03   -.523E+01 0.405E+00 0.534E+01   0.942E-02 0.762E-03 -.408E+00
   0.500E+02 -.691E+01 -.486E+03   -.530E+02 0.689E+01 0.484E+03   0.523E+01 0.405E+00 0.534E+01   -.942E-02 0.762E-03 -.408E+00
   -.460E+02 0.663E+01 -.760E+03   0.498E+02 -.654E+01 0.762E+03   -.422E+01 0.131E+01 0.803E-02   0.856E-02 0.173E-02 -.406E+00
   0.460E+02 0.663E+01 -.760E+03   -.498E+02 -.654E+01 0.762E+03   0.422E+01 0.131E+01 0.803E-02   -.856E-02 0.173E-02 -.406E+00
   0.427E+02 -.159E+02 -.140E+04   -.457E+02 0.182E+02 0.140E+04   0.292E+01 -.710E+01 0.223E+01   -.225E-01 0.109E-01 -.433E+00
   -.427E+02 -.159E+02 -.140E+04   0.457E+02 0.182E+02 0.140E+04   -.292E+01 -.710E+01 0.223E+01   0.225E-01 0.109E-01 -.433E+00
   0.490E+02 0.407E+01 -.203E+04   -.525E+02 -.435E+01 0.203E+04   0.234E+01 -.119E+01 -.997E-01   -.357E-01 -.278E-02 -.138E+00
   -.490E+02 0.407E+01 -.203E+04   0.525E+02 -.435E+01 0.203E+04   -.234E+01 -.119E+01 -.997E-01   0.357E-01 -.278E-02 -.138E+00
   0.687E+02 -.877E+01 -.224E+04   -.744E+02 0.858E+01 0.225E+04   0.511E+01 -.257E+01 -.370E+01   -.530E-01 0.254E-02 0.118E-02
   -.687E+02 -.877E+01 -.224E+04   0.744E+02 0.858E+01 0.225E+04   -.511E+01 -.257E+01 -.370E+01   0.530E-01 0.254E-02 0.118E-02
 -----------------------------------------------------------------------------------------------
   0.125E-10 -.241E+01 0.464E+02   -.995E-13 -.711E-14 0.909E-12   0.000E+00 -.184E+02 -.171E+02   -.159E-11 0.152E-01 -.155E+02
 
 
 POSITION                                       TOTAL-FORCE (eV/Angst)
 -----------------------------------------------------------------------------------
      0.00000      2.87365      0.10000        -1.113337      1.530133      2.244990
      2.76835      0.00000      0.10000         1.113337      1.530133      2.244990
      2.76835      0.00000      3.94645        -0.073982      0.563223      0.192623
      0.00000      2.87365      3.94645         0.073982      0.563223      0.192623
      5.53598      2.87011      7.83612        -0.164783      0.630467     -0.842258
      2.76907      5.74376      7.83612         0.164783      0.630467     -0.842258
      2.70964      0.01813     11.63803        -1.069825      0.311264     -2.228437
      0.05871      2.89178     11.63803         1.069825      0.311264     -2.228437
      2.81154      3.15527      2.02323         1.083999     -0.445070     -0.559707
      5.49351      0.28162      2.02323        -1.083999     -0.445070     -0.559707
      2.72516      2.59203      5.86967        -0.456290      1.374963     -0.225277
      0.04319      5.46568      5.86967         0.456290      1.374963     -0.225277
      2.82136      3.12749      9.76906         0.944921      0.216815      0.239791
      5.48369      0.25384      9.76906        -0.944921      0.216815      0.239791
      4.28762      4.63577      0.39541         3.736506      0.488580      1.376994
      4.01743      1.76212      0.39541        -3.736506      0.488580      1.376994
      2.35587      5.67488      2.02323        -0.163684      1.494293     -2.842836
      0.41248      2.80123      2.02323         0.163684      1.494293     -2.842836
      4.01743      1.76212      3.65104        -4.255572      0.457128     -6.374057
      4.28762      4.63577      3.65104         4.255572      0.457128     -6.374057
      1.24908      1.11153      4.24186        -5.741336     -0.175820      0.128379
      1.51927      3.98518      4.24186         5.741336     -0.175820      0.128379
      3.18083      0.07242      5.86967        -0.439058     -2.220075     -3.641744
      5.12422      2.94607      5.86967         0.439058     -2.220075     -3.641744
      1.59847      4.00208      7.45132        -2.160236      1.002515      2.920260
      1.16988      1.12843      7.45132         2.160236      1.002515      2.920260
      4.38533      4.64278      8.07335        -0.366543      2.019048      0.897898
      3.91972      1.76913      8.07335         0.366543      2.019048      0.897898
      2.37991      0.02052      9.69423        -0.113172     -4.233580      2.066554
      0.38844      2.89417      9.69423         0.113172     -4.233580      2.066554
      3.98137      1.73159     11.27959        -1.210622     -0.867956      2.382216
      4.32368      4.60524     11.27959         1.210622     -0.867956      2.382216
      1.18150      1.10513     11.87903        -0.667704     -2.145928      4.264613
      1.58685      3.97878     11.87903         0.667704     -2.145928      4.264613
 -----------------------------------------------------------------------------------
    total drift:                                0.000000    -20.760348     13.723165


--------------------------------------------------------------------------------------------------------



  FREE ENERGIE OF THE ION-ELECTRON SYSTEM (eV)
  ---------------------------------------------------
  free  energy   TOTEN  =      -278.12685573 eV

  energy  without entropy=     -277.89377223  energy(sigma->0) =     -278.01031398
 
 d Force = 0.2808468E+00[ 0.139E+00, 0.423E+00]  d Energy = 0.5718533E+00-0.291E+00
 d Force = 0.6663834E+00[ 0.545E+00, 0.787E+00]  d Ewald  = 0.6676193E+00-0.124E-02


--------------------------------------------------------------------------------------------------------


    POTLOK:  cpu time      0.9506: real time      0.9527


--------------------------------------------------------------------------------------------------------


 stress matrix after NEB project (eV)
      4.39660      0.00000      0.00000
      0.00000     -8.23338      5.86696
      0.00000      5.86326    -19.59864
  FORCES: max atom, RMS     4.820556    2.181389
  FORCE total and by dimension   12.719575    4.264613
  Stress total and by dimension   23.238420   19.598638


--------------------------------------------------------------------------------------------------------


     LOOP+:  cpu time     44.6904: real time     45.0025
 vacuum level on the upper side and lower side of the slab         6.626         5.844
    4ORBIT:  cpu time      0.0000: real time      0.0000



 total charge

# of ion       s       p       d       f       tot
--------------------------------------------------
    1        0.289   6.175   4.083   0.000  10.546
    2        0.289   6.175   4.083   0.000  10.546
    3        0.284   6.361   4.072   0.000  10.717
    4        0.284   6.361   4.072   0.000  10.717
    5        0.281   6.335   4.033   0.000  10.649
    6        0.281   6.335   4.033   0.000  10.649
    7        0.262   6.276   3.979   0.000  10.517
    8        0.262   6.276   3.979   0.000  10.517
    9        2.006   5.717   0.554   0.247   8.524
   10        2.006   5.717   0.554   0.247   8.524
   11        2.003   5.727   0.555   0.254   8.539
   12        2.003   5.727   0.555   0.254   8.539
   13        2.002   5.717   0.557   0.261   8.536
   14        2.002   5.717   0.557   0.261   8.536
   15        1.606   3.418   0.000   0.000   5.024
   16        1.606   3.418   0.000   0.000   5.024
   17        1.564   3.519   0.000   0.000   5.083
   18        1.564   3.519   0.000   0.000   5.083
   19        1.590   3.495   0.000   0.000   5.085
   20        1.590   3.495   0.000   0.000   5.085
   21        1.588   3.507   0.000   0.000   5.095
   22        1.588   3.507   0.000   0.000   5.095
   23        1.565   3.534   0.000   0.000   5.099
   24        1.565   3.534   0.000   0.000   5.099
   25        1.576   3.488   0.000   0.000   5.064
   26        1.576   3.488   0.000   0.000   5.064
   27        1.574   3.496   0.000   0.000   5.071
   28        1.574   3.496   0.000   0.000   5.071
   29        1.518   3.557   0.000   0.000   5.074
   30        1.518   3.557   0.000   0.000   5.074
   31        1.585   3.436   0.000   0.000   5.021
   32        1.585   3.436   0.000   0.000   5.021
   33        1.595   3.394   0.000   0.000   4.989
   34        1.595   3.394   0.000   0.000   4.989
--------------------------------------------------
tot         45.771 154.304  35.666   1.524 237.266



 magnetization (x)

# of ion       s       p       d       f       tot
--------------------------------------------------
    1       -0.006  -0.002   0.183   0.000   0.175
    2       -0.006  -0.002   0.183   0.000   0.175
    3        0.019   0.024   2.642   0.000   2.685
    4        0.019   0.024   2.642   0.000   2.685
    5        0.019   0.024   2.639   0.000   2.683
    6        0.019   0.024   2.639   0.000   2.683
    7       -0.007  -0.003  -0.341   0.000  -0.351
    8       -0.007  -0.003  -0.341   0.000  -0.351
    9       -0.001  -0.001   0.012   0.011   0.021
   10       -0.001  -0.001   0.012   0.011   0.021
   11        0.000  -0.001   0.012   0.014   0.026
   12        0.000  -0.001   0.012   0.014   0.026
   13        0.000  -0.000   0.008   0.005   0.014
   14        0.000  -0.000   0.008   0.005   0.014
   15       -0.001   0.010   0.000   0.000   0.009
   16       -0.001   0.010   0.000   0.000   0.009
   17       -0.001  -0.007   0.000   0.000  -0.008
   18       -0.001  -0.007   0.000   0.000  -0.008
   19        0.001  -0.003   0.000   0.000  -0.002
   20        0.001  -0.003   0.000   0.000  -0.002
   21        0.001  -0.003   0.000   0.000  -0.002
   22        0.001  -0.003   0.000   0.000  -0.002
   23       -0.000   0.031   0.000   0.000   0.031
   24       -0.000   0.031   0.000   0.000   0.031
   25        0.001  -0.015   0.000   0.000  -0.014
   26        0.001  -0.015   0.000   0.000  -0.014
   27        0.000  -0.008   0.000   0.000  -0.008
   28        0.000  -0.008   0.000   0.000  -0.008
   29        0.001   0.009   0.000   0.000   0.010
   30        0.001   0.009   0.000   0.000   0.010
   31       -0.000   0.012   0.000   0.000   0.012
   32       -0.000   0.012   0.000   0.000   0.012
   33        0.001   0.048   0.000   0.000   0.049
   34        0.001   0.048   0.000   0.000   0.049
--------------------------------------------------
tot          0.058   0.228  10.314   0.060  10.659
 

 total amount of memory used by VASP MPI-rank0    42619. kBytes
=======================================================================

   base      :      30000. kBytes
   nonlr-proj:       2243. kBytes
   fftplans  :       1875. kBytes
   grid      :       5118. kBytes
   one-center:        884. kBytes
   wavefun   :       2499. kBytes
 
  
  
 General timing and accounting informations for this job:
 ========================================================
  
                  Total CPU time used (sec):      225.620
                            User time (sec):      222.061
                          System time (sec):        3.558
                         Elapsed time (sec):      227.766
  
                   Maximum memory used (kb):      204188.
                   Average memory used (kb):          N/A
  
                          Minor page faults:        74910
                          Major page faults:            3
                 Voluntary context switches:         5759
