 running   40 mpi-ranks, on    1 nodes
 distrk:  each k-point on   40 cores,    1 groups
 distr:  one band on    4 cores,   10 groups
 vasp.6.4.3 19Mar24 (build Jul 09 2024 15:45:28) complex                        
  
 POSCAR found type information on POSCAR CrLaO 
 POSCAR found :  3 types and      34 ions
 scaLAPACK will be used
 -----------------------------------------------------------------------------
|                                                                             |
|           W    W    AA    RRRRR   N    N  II  N    N   GGGG   !!!           |
|           W    W   A  A   R    R  NN   N  II  NN   N  G    G  !!!           |
|           W    W  A    A  R    R  N N  N  II  N N  N  G       !!!           |
|           W WW W  AAAAAA  RRRRR   N  N N  II  N  N N  G  GGG   !            |
|           WW  WW  A    A  R   R   N   NN  II  N   NN  G    G                |
|           W    W  A    A  R    R  N    N  II  N    N   GGGG   !!!           |
|                                                                             |
|     The real-space projection scheme for the treatment of the non-local     |
|     pseudopotentials has been switched on but on file POTCAR I have not     |
|     found any entries, signalling me that you have never performed a        |
|     real-space optimization of all non-local projectors! BE WARNED that     |
|     a calculation using the real-space projection scheme together with      |
|     non-local projectors which were not real-space optimized (according     |
|     to the plane-wave cutoff used in this calculation) might give more      |
|     or less inaccurate results. I hope you know what you are doing.         |
|                                                                             |
 -----------------------------------------------------------------------------

 LDA part: xc-table for (Slater+PW92), standard interpolation
 POSCAR found type information on POSCAR CrLaO 
 POSCAR found :  3 types and      34 ions
 POSCAR, INCAR and KPOINTS ok, starting setup
 FFT: planning ... GRIDC
 FFT: planning ... GRID_SOFT
 FFT: planning ... GRID
 WAVECAR not read
 entering main loop
       N       E                     dE             d eps       ncg     rms          rms(c)
DAV:   1     0.437060413311E+04    0.43706E+04   -0.10659E+05   760   0.161E+03
DAV:   2     0.951795134778E+03   -0.34188E+04   -0.31371E+04   780   0.507E+02
DAV:   3    -0.162317876919E+03   -0.11141E+04   -0.10658E+04  1000   0.241E+02
DAV:   4    -0.341448840480E+03   -0.17913E+03   -0.17479E+03  1120   0.101E+02
DAV:   5    -0.354380987285E+03   -0.12932E+02   -0.12115E+02  1340   0.298E+01    0.853E+01
DAV:   6    -0.588956915074E+03   -0.23458E+03   -0.57716E+03  1240   0.169E+02    0.308E+02
DAV:   7    -0.421798213192E+03    0.16716E+03   -0.13068E+03  1400   0.175E+02    0.156E+02
DAV:   8    -0.516708547887E+03   -0.94910E+02   -0.78948E+02  1220   0.114E+02    0.181E+02
DAV:   9    -0.335458525328E+03    0.18125E+03   -0.39523E+02  1200   0.706E+01    0.867E+01
DAV:  10    -0.475594861991E+03   -0.14014E+03   -0.41698E+02  1140   0.621E+01    0.126E+02
DAV:  11    -0.388738703563E+03    0.86856E+02   -0.12081E+02  1360   0.273E+01    0.852E+01
DAV:  12    -0.344140403172E+03    0.44598E+02   -0.14029E+02   980   0.364E+01    0.768E+01
DAV:  13    -0.286397597038E+03    0.57743E+02   -0.19256E+02  1220   0.289E+01    0.468E+01
DAV:  14    -0.280583756750E+03    0.58138E+01   -0.74321E+01  1080   0.213E+01    0.425E+01
DAV:  15    -0.279923190532E+03    0.66057E+00   -0.22566E+01  1300   0.130E+01    0.399E+01
DAV:  16    -0.278345445032E+03    0.15777E+01   -0.20282E+01  1020   0.937E+00    0.302E+01
DAV:  17    -0.277242987552E+03    0.11025E+01   -0.67480E+00  1220   0.578E+00    0.261E+01
DAV:  18    -0.278362166866E+03   -0.11192E+01   -0.10709E+00  1300   0.244E+00    0.284E+01
DAV:  19    -0.279151389314E+03   -0.78922E+00   -0.19027E+00  1220   0.170E+00    0.326E+01
DAV:  20    -0.276595351574E+03    0.25560E+01   -0.11989E+01   940   0.510E+00    0.255E+01
DAV:  21    -0.277466089565E+03   -0.87074E+00   -0.15494E+01  1160   0.699E+00    0.357E+01
DAV:  22    -0.274471725611E+03    0.29944E+01   -0.59785E+00   980   0.441E+00    0.240E+01
DAV:  23    -0.273990315749E+03    0.48141E+00   -0.20039E+00  1160   0.364E+00    0.221E+01
DAV:  24    -0.273728843855E+03    0.26147E+00   -0.20414E+00  1120   0.374E+00    0.199E+01
DAV:  25    -0.273436076335E+03    0.29277E+00   -0.11916E+00  1180   0.310E+00    0.178E+01
DAV:  26    -0.273600361968E+03   -0.16429E+00   -0.98015E-01  1040   0.214E+00    0.176E+01
DAV:  27    -0.273665175278E+03   -0.64813E-01   -0.22316E-01  1140   0.128E+00    0.182E+01
DAV:  28    -0.274126241468E+03   -0.46107E+00   -0.24592E-01   920   0.881E-01    0.189E+01
DAV:  29    -0.274713742261E+03   -0.58750E+00   -0.15069E+00   920   0.207E+00    0.187E+01
DAV:  30    -0.274871026286E+03   -0.15728E+00   -0.46433E-01  1240   0.132E+00
 -----------------------------------------------------------------------------
|                                                                             |
|           W    W    AA    RRRRR   N    N  II  N    N   GGGG   !!!           |
|           W    W   A  A   R    R  NN   N  II  NN   N  G    G  !!!           |
|           W    W  A    A  R    R  N N  N  II  N N  N  G       !!!           |
|           W WW W  AAAAAA  RRRRR   N  N N  II  N  N N  G  GGG   !            |
|           WW  WW  A    A  R   R   N   NN  II  N   NN  G    G                |
|           W    W  A    A  R    R  N    N  II  N    N   GGGG   !!!           |
|                                                                             |
|     The electronic self-consistency was not achieved in the given           |
|     number of steps (NELM). The forces and other quantities evaluated       |
|     might not be reliable so examine the results carefully. If you find     |
|     spurious results, we suggest increasing NELM, if you were close to      |
|     convergence or switching to a different ALGO or adjusting the           |
|     density mixing parameters otherwise.                                    |
|                                                                             |
 -----------------------------------------------------------------------------

   1 F= -.27487103E+03 E0= -.27469210E+03  d E =-.274871E+03  mag=     6.8036
 curvature:   0.00 expect dE= 0.000E+00 dE for cont linesearch  0.000E+00
 trial: gam= 0.00000 g(F)=  0.365E+01 g(S)=  0.000E+00 ort = 0.000E+00 (trialstep = 0.100E+01)
 search vector abs. value=  0.365E+01
 bond charge predicted
       N       E                     dE             d eps       ncg     rms          rms(c)
DAV:   1    -0.274916648004E+03   -0.20291E+00   -0.28440E+02   840   0.560E+01    0.213E+01
DAV:   2    -0.511060953759E+03   -0.23614E+03   -0.12904E+03  1280   0.742E+01    0.182E+02
DAV:   3    -0.344155802006E+03    0.16691E+03   -0.28498E+02  1160   0.501E+01    0.873E+01
DAV:   4    -0.282550328357E+03    0.61605E+02   -0.85348E+01  1040   0.354E+01    0.439E+01
DAV:   5    -0.277580541413E+03    0.49698E+01   -0.12528E+02  1220   0.164E+01    0.287E+01
DAV:   6    -0.277065800025E+03    0.51474E+00   -0.50473E+01  1180   0.137E+01    0.228E+01
DAV:   7    -0.280094572552E+03   -0.30288E+01   -0.39153E+01  1040   0.120E+01    0.325E+01
DAV:   8    -0.276277351637E+03    0.38172E+01   -0.37058E+01  1040   0.829E+00    0.222E+01
DAV:   9    -0.275849212807E+03    0.42814E+00   -0.47431E+00  1100   0.419E+00    0.143E+01
DAV:  10    -0.276697864866E+03   -0.84865E+00   -0.31690E+00  1180   0.256E+00    0.207E+01
DAV:  11    -0.277291109017E+03   -0.59324E+00   -0.94260E-01  1080   0.156E+00    0.238E+01
DAV:  12    -0.276715385213E+03    0.57572E+00   -0.57241E-01  1120   0.133E+00    0.206E+01
DAV:  13    -0.276640989529E+03    0.74396E-01   -0.14570E-01  1100   0.636E-01    0.197E+01
DAV:  14    -0.278494198712E+03   -0.18532E+01   -0.66197E+00   960   0.297E+00    0.274E+01
DAV:  15    -0.277336269932E+03    0.11579E+01   -0.23389E+00  1120   0.196E+00    0.203E+01
DAV:  16    -0.277055551126E+03    0.28072E+00   -0.93307E-01  1180   0.148E+00    0.167E+01
DAV:  17    -0.277051556178E+03    0.39949E-02   -0.24390E-01  1060   0.137E+00    0.162E+01
DAV:  18    -0.277230777273E+03   -0.17922E+00   -0.76649E-02  1340   0.796E-01    0.171E+01
DAV:  19    -0.277226317357E+03    0.44599E-02   -0.81458E-03  1040   0.269E-01    0.171E+01
DAV:  20    -0.277340543315E+03   -0.11423E+00   -0.10380E-02  1140   0.375E-01    0.177E+01
DAV:  21    -0.277160098542E+03    0.18044E+00   -0.98413E-02   920   0.850E-01    0.172E+01
DAV:  22    -0.277065306312E+03    0.94792E-01   -0.34358E-02   960   0.591E-01    0.165E+01
DAV:  23    -0.276888596745E+03    0.17671E+00   -0.37473E-01   880   0.105E+00    0.151E+01
DAV:  24    -0.276910933715E+03   -0.22337E-01   -0.18736E-01  1200   0.926E-01    0.148E+01
DAV:  25    -0.276972037548E+03   -0.61104E-01   -0.21310E-01   940   0.106E+00    0.138E+01
DAV:  26    -0.276821742222E+03    0.15030E+00   -0.88267E-01   900   0.186E+00    0.146E+01
DAV:  27    -0.276231378059E+03    0.59036E+00   -0.61532E-01   980   0.175E+00    0.155E+01
DAV:  28    -0.275886049141E+03    0.34533E+00   -0.22909E-01  1180   0.108E+00    0.155E+01
DAV:  29    -0.276031644327E+03   -0.14560E+00   -0.15639E-01   900   0.827E-01    0.160E+01
DAV:  30    -0.276125568021E+03   -0.93924E-01   -0.32268E-02  1240   0.370E-01
 -----------------------------------------------------------------------------
|                                                                             |
|           W    W    AA    RRRRR   N    N  II  N    N   GGGG   !!!           |
|           W    W   A  A   R    R  NN   N  II  NN   N  G    G  !!!           |
|           W    W  A    A  R    R  N N  N  II  N N  N  G       !!!           |
|           W WW W  AAAAAA  RRRRR   N  N N  II  N  N N  G  GGG   !            |
|           WW  WW  A    A  R   R   N   NN  II  N   NN  G    G                |
|           W    W  A    A  R    R  N    N  II  N    N   GGGG   !!!           |
|                                                                             |
|     The electronic self-consistency was not achieved in the given           |
|     number of steps (NELM). The forces and other quantities evaluated       |
|     might not be reliable so examine the results carefully. If you find     |
|     spurious results, we suggest increasing NELM, if you were close to      |
|     convergence or switching to a different ALGO or adjusting the           |
|     density mixing parameters otherwise.                                    |
|                                                                             |
 -----------------------------------------------------------------------------

   2 F= -.27612557E+03 E0= -.27598408E+03  d E =-.125454E+01  mag=     7.5662
 trial-energy change:   -1.254542  1 .order   -1.853020   -3.651410   -0.054631
 step:   1.0152(harm=  1.0152)  dis= 0.07734  next Energy=  -276.724461 (dE=-0.185E+01)
 bond charge predicted
       N       E                     dE             d eps       ncg     rms          rms(c)
DAV:   1    -0.276127604317E+03   -0.95960E-01   -0.67912E-02   920   0.911E-01    0.161E+01
DAV:   2    -0.606102651702E+03   -0.32998E+03   -0.16489E+03  1060   0.708E+01    0.161E+02
DAV:   3    -0.288222695845E+03    0.31788E+03   -0.63553E+02  1140   0.881E+01    0.724E+01
DAV:   4    -0.267050203348E+03    0.21172E+02   -0.22155E+02  1200   0.362E+01    0.277E+01
DAV:   5    -0.276205393974E+03   -0.91552E+01   -0.12869E+02  1180   0.171E+01    0.185E+01
DAV:   6    -0.277066900495E+03   -0.86151E+00   -0.27058E+01  1160   0.134E+01    0.138E+01
DAV:   7    -0.276747022978E+03    0.31988E+00   -0.33760E+00  1160   0.486E+00    0.753E+00
DAV:   8    -0.276862599910E+03   -0.11558E+00   -0.10214E+00  1320   0.231E+00    0.109E+01
DAV:   9    -0.276915459776E+03   -0.52860E-01   -0.29396E-01  1020   0.104E+00    0.115E+01
DAV:  10    -0.276933563084E+03   -0.18103E-01   -0.66184E-02  1220   0.718E-01    0.114E+01
DAV:  11    -0.276990451878E+03   -0.56889E-01   -0.97471E-02  1220   0.602E-01    0.118E+01
DAV:  12    -0.277045202509E+03   -0.54751E-01   -0.37155E-02  1040   0.339E-01    0.125E+01
DAV:  13    -0.276897521633E+03    0.14768E+00   -0.51705E-01   980   0.125E+00    0.855E+00
DAV:  14    -0.277114813663E+03   -0.21729E+00   -0.64736E-01  1140   0.183E+00    0.754E+00
DAV:  15    -0.277224347337E+03   -0.10953E+00   -0.11488E+00  1120   0.205E+00    0.490E+00
DAV:  16    -0.277280496549E+03   -0.56149E-01   -0.12522E-01  1260   0.910E-01    0.485E+00
DAV:  17    -0.277273412427E+03    0.70841E-02   -0.25739E-02  1300   0.360E-01    0.498E+00
DAV:  18    -0.277268402474E+03    0.50100E-02   -0.26550E-02  1020   0.355E-01    0.490E+00
DAV:  19    -0.277213778039E+03    0.54624E-01   -0.79854E-02  1020   0.504E-01    0.479E+00
DAV:  20    -0.276891320660E+03    0.32246E+00   -0.10011E+00   860   0.155E+00    0.434E+00
DAV:  21    -0.276981761754E+03   -0.90441E-01   -0.22716E-01  1320   0.984E-01    0.520E+00
DAV:  22    -0.277031079730E+03   -0.49318E-01   -0.21772E-01  1140   0.684E-01    0.601E+00
DAV:  23    -0.277024746210E+03    0.63335E-02   -0.96485E-03  1080   0.309E-01    0.599E+00
DAV:  24    -0.277022043162E+03    0.27030E-02   -0.12604E-03  1060   0.875E-02    0.600E+00
DAV:  25    -0.277024313596E+03   -0.22704E-02   -0.53667E-03   940   0.127E-01    0.603E+00
DAV:  26    -0.277020353386E+03    0.39602E-02   -0.10736E-02  1120   0.229E-01    0.583E+00
DAV:  27    -0.277018526571E+03    0.18268E-02   -0.37949E-02   960   0.457E-01    0.548E+00
DAV:  28    -0.277045273170E+03   -0.26747E-01   -0.22100E-02  1280   0.296E-01    0.539E+00
DAV:  29    -0.277064910596E+03   -0.19637E-01   -0.48856E-02   960   0.445E-01    0.530E+00
DAV:  30    -0.277070593195E+03   -0.56826E-02   -0.10906E-01  1000   0.616E-01
 -----------------------------------------------------------------------------
|                                                                             |
|           W    W    AA    RRRRR   N    N  II  N    N   GGGG   !!!           |
|           W    W   A  A   R    R  NN   N  II  NN   N  G    G  !!!           |
|           W    W  A    A  R    R  N N  N  II  N N  N  G       !!!           |
|           W WW W  AAAAAA  RRRRR   N  N N  II  N  N N  G  GGG   !            |
|           WW  WW  A    A  R   R   N   NN  II  N   NN  G    G                |
|           W    W  A    A  R    R  N    N  II  N    N   GGGG   !!!           |
|                                                                             |
|     The electronic self-consistency was not achieved in the given           |
|     number of steps (NELM). The forces and other quantities evaluated       |
|     might not be reliable so examine the results carefully. If you find     |
|     spurious results, we suggest increasing NELM, if you were close to      |
|     convergence or switching to a different ALGO or adjusting the           |
|     density mixing parameters otherwise.                                    |
|                                                                             |
 -----------------------------------------------------------------------------

   3 F= -.27707059E+03 E0= -.27690879E+03  d E =-.219957E+01  mag=     8.8425
 curvature:  -0.51 expect dE=-0.188E+01 dE for cont linesearch -0.258E-02
 trial: gam= 1.04999 g(F)=  0.370E+01 g(S)=  0.000E+00 ort =-0.136E+00 (trialstep = 0.492E+00)
 search vector abs. value=  0.744E+01
 bond charge predicted
       N       E                     dE             d eps       ncg     rms          rms(c)
DAV:   1    -0.275900575070E+03    0.11643E+01   -0.13742E+02   820   0.414E+01    0.571E+00
DAV:   2    -0.277346623765E+03   -0.14460E+01   -0.13206E+01  1180   0.141E+01    0.802E+00
DAV:   3    -0.287292436440E+03   -0.99458E+01   -0.69401E+01  1220   0.103E+01    0.513E+01
DAV:   4    -0.276653791402E+03    0.10639E+02   -0.69937E+01  1160   0.937E+00    0.441E+00
DAV:   5    -0.277210539903E+03   -0.55675E+00   -0.10569E+00  1020   0.317E+00    0.591E+00
DAV:   6    -0.277209465414E+03    0.10745E-02   -0.59407E-01  1120   0.199E+00    0.430E+00
DAV:   7    -0.277192397658E+03    0.17068E-01   -0.10849E-01  1200   0.805E-01    0.363E+00
DAV:   8    -0.277293912836E+03   -0.10152E+00   -0.70890E-01   960   0.118E+00    0.377E+00
DAV:   9    -0.277439042103E+03   -0.14513E+00   -0.15671E-01  1220   0.989E-01    0.417E+00
DAV:  10    -0.277484223765E+03   -0.45182E-01   -0.94393E-02  1160   0.673E-01    0.349E+00
DAV:  11    -0.277485543617E+03   -0.13199E-02   -0.49721E-03  1180   0.228E-01    0.351E+00
DAV:  12    -0.277465166287E+03    0.20377E-01   -0.57863E-03  1140   0.193E-01    0.335E+00
DAV:  13    -0.277399011914E+03    0.66154E-01   -0.19054E-01   940   0.549E-01    0.359E+00
DAV:  14    -0.277375854025E+03    0.23158E-01   -0.93775E-01  1020   0.103E+00    0.282E+00
DAV:  15    -0.277416276338E+03   -0.40422E-01   -0.14815E-01  1000   0.752E-01    0.273E+00
DAV:  16    -0.277418431222E+03   -0.21549E-02   -0.19791E-02  1260   0.336E-01    0.274E+00
DAV:  17    -0.277418946425E+03   -0.51520E-03   -0.14076E-03   960   0.103E-01    0.274E+00
DAV:  18    -0.277424354044E+03   -0.54076E-02   -0.44260E-03   860   0.109E-01    0.271E+00
DAV:  19    -0.277372471843E+03    0.51882E-01   -0.11361E-01   980   0.468E-01    0.293E+00
DAV:  20    -0.277377355856E+03   -0.48840E-02   -0.47816E-03  1200   0.210E-01    0.293E+00
DAV:  21    -0.277366782707E+03    0.10573E-01   -0.11247E-02  1140   0.213E-01    0.291E+00
DAV:  22    -0.277310913159E+03    0.55870E-01   -0.39823E-01  1060   0.105E+00    0.261E+00
DAV:  23    -0.277219854405E+03    0.91059E-01   -0.63803E-01  1040   0.110E+00    0.248E+00
DAV:  24    -0.277236444954E+03   -0.16591E-01   -0.40594E-02  1060   0.479E-01    0.247E+00
DAV:  25    -0.277240005203E+03   -0.35602E-02   -0.39795E-03  1240   0.188E-01    0.238E+00
DAV:  26    -0.277318634477E+03   -0.78629E-01   -0.10835E-01   900   0.554E-01    0.189E+00
DAV:  27    -0.277441334849E+03   -0.12270E+00   -0.19853E-01  1080   0.798E-01    0.141E+00
DAV:  28    -0.277515531222E+03   -0.74196E-01   -0.17727E-01  1100   0.681E-01    0.181E+00
DAV:  29    -0.277539850193E+03   -0.24319E-01   -0.48559E-02  1240   0.462E-01    0.180E+00
DAV:  30    -0.277555002392E+03   -0.15152E-01   -0.31946E-02  1180   0.319E-01
 -----------------------------------------------------------------------------
|                                                                             |
|           W    W    AA    RRRRR   N    N  II  N    N   GGGG   !!!           |
|           W    W   A  A   R    R  NN   N  II  NN   N  G    G  !!!           |
|           W    W  A    A  R    R  N N  N  II  N N  N  G       !!!           |
|           W WW W  AAAAAA  RRRRR   N  N N  II  N  N N  G  GGG   !            |
|           WW  WW  A    A  R   R   N   NN  II  N   NN  G    G                |
|           W    W  A    A  R    R  N    N  II  N    N   GGGG   !!!           |
|                                                                             |
|     The electronic self-consistency was not achieved in the given           |
|     number of steps (NELM). The forces and other quantities evaluated       |
|     might not be reliable so examine the results carefully. If you find     |
|     spurious results, we suggest increasing NELM, if you were close to      |
|     convergence or switching to a different ALGO or adjusting the           |
|     density mixing parameters otherwise.                                    |
|                                                                             |
 -----------------------------------------------------------------------------

   4 F= -.27755500E+03 E0= -.27741271E+03  d E =-.484409E+00  mag=     9.9481
 trial-energy change:   -0.484409  1 .order   -0.207334   -1.750493    1.335824
 step:   0.3367(harm=  0.2793)  dis= 0.03725  next Energy=  -277.757513 (dE=-0.687E+00)
 bond charge predicted
       N       E                     dE             d eps       ncg     rms          rms(c)
DAV:   1    -0.277777235309E+03   -0.23739E+00   -0.13892E+01   860   0.131E+01    0.152E+00
DAV:   2    -0.277922822998E+03   -0.14559E+00   -0.12443E+00  1080   0.406E+00    0.174E+00
DAV:   3    -0.278366739998E+03   -0.44392E+00   -0.45847E+00  1280   0.263E+00    0.106E+01
DAV:   4    -0.277909390648E+03    0.45735E+00   -0.52652E+00  1080   0.263E+00    0.242E+00
DAV:   5    -0.277941480584E+03   -0.32090E-01   -0.36294E-02  1180   0.623E-01    0.195E+00
DAV:   6    -0.277955130065E+03   -0.13649E-01   -0.43684E-02  1020   0.515E-01    0.234E+00
DAV:   7    -0.277956876897E+03   -0.17468E-02   -0.15078E-02  1300   0.332E-01    0.213E+00
DAV:   8    -0.277947505182E+03    0.93717E-02   -0.19599E-03  1060   0.125E-01    0.201E+00
DAV:   9    -0.277924984696E+03    0.22520E-01   -0.59135E-03   960   0.172E-01    0.155E+00
DAV:  10    -0.277915500178E+03    0.94845E-02   -0.70893E-03  1060   0.154E-01    0.143E+00
DAV:  11    -0.277918537959E+03   -0.30378E-02   -0.13720E-02   880   0.209E-01    0.126E+00
DAV:  12    -0.277934556232E+03   -0.16018E-01   -0.94403E-03  1080   0.199E-01    0.128E+00
DAV:  13    -0.277946059567E+03   -0.11503E-01   -0.44370E-02  1060   0.320E-01    0.628E-01
DAV:  14    -0.277966556795E+03   -0.20497E-01   -0.37481E-02  1180   0.287E-01    0.479E-01
DAV:  15    -0.277990658100E+03   -0.24101E-01   -0.56427E-02   960   0.290E-01    0.407E-01
DAV:  16    -0.278005340187E+03   -0.14682E-01   -0.17644E-02  1160   0.176E-01    0.390E-01
DAV:  17    -0.278016365276E+03   -0.11025E-01   -0.24594E-02   940   0.185E-01    0.366E-01
DAV:  18    -0.278026083855E+03   -0.97186E-02   -0.61321E-02  1000   0.295E-01    0.395E-01
DAV:  19    -0.278032149038E+03   -0.60652E-02   -0.30729E-02  1100   0.201E-01    0.396E-01
DAV:  20    -0.278038602572E+03   -0.64535E-02   -0.27726E-02  1020   0.168E-01    0.440E-01
DAV:  21    -0.278050983972E+03   -0.12381E-01   -0.97036E-03  1000   0.117E-01    0.464E-01
DAV:  22    -0.278058344347E+03   -0.73604E-02   -0.30195E-02   980   0.190E-01    0.421E-01
DAV:  23    -0.278090121013E+03   -0.31777E-01   -0.35620E-02  1040   0.211E-01    0.286E-01
DAV:  24    -0.278099828463E+03   -0.97074E-02   -0.29009E-02  1060   0.187E-01    0.324E-01
DAV:  25    -0.278105143687E+03   -0.53152E-02   -0.28064E-03   960   0.867E-02    0.332E-01
DAV:  26    -0.278117096406E+03   -0.11953E-01   -0.11786E-02   880   0.113E-01    0.290E-01
DAV:  27    -0.278126557161E+03   -0.94608E-02   -0.19843E-02  1080   0.143E-01    0.306E-01
DAV:  28    -0.278126982917E+03   -0.42576E-03   -0.53481E-04   840   0.780E-02    0.307E-01
DAV:  29    -0.278126531173E+03    0.45174E-03   -0.54628E-05   680   0.286E-02    0.313E-01
DAV:  30    -0.278126855734E+03   -0.32456E-03   -0.28144E-05   480   0.255E-02
 -----------------------------------------------------------------------------
|                                                                             |
|           W    W    AA    RRRRR   N    N  II  N    N   GGGG   !!!           |
|           W    W   A  A   R    R  NN   N  II  NN   N  G    G  !!!           |
|           W    W  A    A  R    R  N N  N  II  N N  N  G       !!!           |
|           W WW W  AAAAAA  RRRRR   N  N N  II  N  N N  G  GGG   !            |
|           WW  WW  A    A  R   R   N   NN  II  N   NN  G    G                |
|           W    W  A    A  R    R  N    N  II  N    N   GGGG   !!!           |
|                                                                             |
|     The electronic self-consistency was not achieved in the given           |
|     number of steps (NELM). The forces and other quantities evaluated       |
|     might not be reliable so examine the results carefully. If you find     |
|     spurious results, we suggest increasing NELM, if you were close to      |
|     convergence or switching to a different ALGO or adjusting the           |
|     density mixing parameters otherwise.                                    |
|                                                                             |
 -----------------------------------------------------------------------------

   5 F= -.27812686E+03 E0= -.27801031E+03  d E =-.105626E+01  mag=    11.1529
 curvature:  -0.27 expect dE=-0.635E+00 dE for cont linesearch -0.291E-01
 ZBRENT: interpolating
 opt :   0.2691  next Energy=  -278.157047 (dE=-0.109E+01)
