<?xml version="1.0" encoding="ISO-8859-1"?>
<modeling>
 <generator>
  <i name="program" type="string">vasp </i>
  <i name="version" type="string">6.4.3  </i>
  <i name="subversion" type="string">19Mar24 (build Jul 09 2024 15:45:28) complex                          parallel </i>
  <i name="platform" type="string">LinuxIFC </i>
  <i name="date" type="string">2024 10 29 </i>
  <i name="time" type="string">11:50:26 </i>
 </generator>
 <incar>
  <i type="string" name="PREC">Normal</i>
  <i type="string" name="ALGO">Normal</i>
  <i type="int" name="NSIM">    10</i>
  <i type="int" name="ISPIN">     2</i>
  <i type="int" name="NELM">    30</i>
  <i type="int" name="NELMIN">     5</i>
  <i type="int" name="IBRION">     2</i>
  <i name="EDIFF">      0.00010000</i>
  <i name="EDIFFG">     -0.10000000</i>
  <i type="int" name="NSW">     5</i>
  <i name="ENCUT">    400.00000000</i>
  <i name="POTIM">      0.15000000</i>
  <v name="MAGMOM">      1.00000000      1.00000000      1.00000000      1.00000000      1.00000000      1.00000000      1.00000000      1.00000000      0.00000000      0.00000000      0.00000000      0.00000000      0.00000000      0.00000000      0.00000000      0.00000000      0.00000000      0.00000000      0.00000000      0.00000000
      0.00000000      0.00000000      0.00000000      0.00000000      0.00000000      0.00000000      0.00000000      0.00000000      0.00000000      0.00000000      0.00000000      0.00000000      0.00000000      0.00000000</v>
  <i type="logical" name="LREAL"> T  </i>
  <i type="int" name="ISMEAR">     0</i>
  <i type="logical" name="KGAMMA"> T  </i>
  <i type="int" name="LMAXMIX">     6</i>
  <i type="logical" name="LWAVE"> F  </i>
  <i type="logical" name="LCHARG"> F  </i>
  <i type="int" name="LORBIT">    10</i>
  <i type="logical" name="LASPH"> T  </i>
  <i type="string" name="GGA">PE</i>
  <i type="logical" name="LDIPOL"> T  </i>
  <i type="int" name="IDIPOL">     3</i>
 </incar>
 <primitive_cell>
  <structure name="primitive_cell" >
   <crystal>
    <varray name="basis" >
     <v>       5.53670000       0.00000000       0.00000000 </v>
     <v>       0.00000000       5.74730000       0.00000000 </v>
     <v>       0.00000000       0.00000000      29.09039264 </v>
    </varray>
    <i name="volume">    925.68759245 </i>
    <varray name="rec_basis" >
     <v>       0.18061300       0.00000000       0.00000000 </v>
     <v>       0.00000000       0.17399475       0.00000000 </v>
     <v>       0.00000000       0.00000000       0.03437561 </v>
    </varray>
   </crystal>
   <varray name="positions" >
    <v>       0.00000000       0.50000000       0.00343756 </v>
    <v>       0.50000000       0.00000000       0.00343756 </v>
    <v>       0.50000000       0.00000000       0.13566163 </v>
    <v>       0.00000000       0.50000000       0.13566163 </v>
    <v>       0.00000000       0.50000000       0.26788569 </v>
    <v>       0.50000000       0.00000000       0.26788569 </v>
    <v>       0.50000000       0.00000000       0.40010976 </v>
    <v>       0.00000000       0.50000000       0.40010976 </v>
    <v>       0.50780000       0.54900000       0.06954959 </v>
    <v>       0.99220000       0.04900000       0.06954959 </v>
    <v>       0.49220000       0.45100000       0.20177366 </v>
    <v>       0.00780000       0.95100000       0.20177366 </v>
    <v>       0.50780000       0.54900000       0.33399773 </v>
    <v>       0.99220000       0.04900000       0.33399773 </v>
    <v>       0.77440000       0.80660000       0.01359237 </v>
    <v>       0.72560000       0.30660000       0.01359237 </v>
    <v>       0.42550000       0.98740000       0.06954959 </v>
    <v>       0.07450000       0.48740000       0.06954959 </v>
    <v>       0.72560000       0.30660000       0.12550682 </v>
    <v>       0.77440000       0.80660000       0.12550682 </v>
    <v>       0.22560000       0.19340000       0.14581644 </v>
    <v>       0.27440000       0.69340000       0.14581644 </v>
    <v>       0.57450000       0.01260000       0.20177366 </v>
    <v>       0.92550000       0.51260000       0.20177366 </v>
    <v>       0.27440000       0.69340000       0.25773088 </v>
    <v>       0.22560000       0.19340000       0.25773088 </v>
    <v>       0.77440000       0.80660000       0.27804050 </v>
    <v>       0.72560000       0.30660000       0.27804050 </v>
    <v>       0.42550000       0.98740000       0.33399773 </v>
    <v>       0.07450000       0.48740000       0.33399773 </v>
    <v>       0.72560000       0.30660000       0.38995495 </v>
    <v>       0.77440000       0.80660000       0.38995495 </v>
    <v>       0.22560000       0.19340000       0.41026457 </v>
    <v>       0.27440000       0.69340000       0.41026457 </v>
   </varray>
  </structure>
  <varray name="primitive_index" >
   <v type="int" >        1 </v>
   <v type="int" >        2 </v>
   <v type="int" >        3 </v>
   <v type="int" >        4 </v>
   <v type="int" >        5 </v>
   <v type="int" >        6 </v>
   <v type="int" >        7 </v>
   <v type="int" >        8 </v>
   <v type="int" >        9 </v>
   <v type="int" >       10 </v>
   <v type="int" >       11 </v>
   <v type="int" >       12 </v>
   <v type="int" >       13 </v>
   <v type="int" >       14 </v>
   <v type="int" >       15 </v>
   <v type="int" >       16 </v>
   <v type="int" >       17 </v>
   <v type="int" >       18 </v>
   <v type="int" >       19 </v>
   <v type="int" >       20 </v>
   <v type="int" >       21 </v>
   <v type="int" >       22 </v>
   <v type="int" >       23 </v>
   <v type="int" >       24 </v>
   <v type="int" >       25 </v>
   <v type="int" >       26 </v>
   <v type="int" >       27 </v>
   <v type="int" >       28 </v>
   <v type="int" >       29 </v>
   <v type="int" >       30 </v>
   <v type="int" >       31 </v>
   <v type="int" >       32 </v>
   <v type="int" >       33 </v>
   <v type="int" >       34 </v>
  </varray>
 </primitive_cell>
 <kpoints>
  <generation param="Monkhorst-Pack">
   <v type="int" name="divisions">       1        1        1 </v>
   <v name="usershift">      0.00000000       0.00000000       0.00000000 </v>
   <v name="genvec1">      1.00000000       0.00000000       0.00000000 </v>
   <v name="genvec2">      0.00000000       1.00000000       0.00000000 </v>
   <v name="genvec3">      0.00000000       0.00000000       1.00000000 </v>
   <v name="shift">      0.00000000       0.00000000       0.00000000 </v>
  </generation>
  <varray name="kpointlist" >
   <v>       0.00000000       0.00000000       0.00000000 </v>
  </varray>
  <varray name="weights" >
   <v>       1.00000000 </v>
  </varray>
 </kpoints>
 <parameters>
  <separator name="general" >
   <i type="string" name="SYSTEM">unknown system</i>
   <i type="logical" name="LCOMPAT"> F  </i>
  </separator>
  <separator name="electronic" >
   <i type="string" name="PREC">normal</i>
   <i name="ENMAX">    400.00000000</i>
   <i name="ENAUG">    605.39200000</i>
   <i name="EDIFF">      0.00010000</i>
   <i type="int" name="IALGO">    38</i>
   <i type="int" name="IWAVPR">    11</i>
   <i type="int" name="NBANDS">   180</i>
   <i type="int" name="NBANDSLOW">    -1</i>
   <i type="int" name="NBANDSHIGH">    -1</i>
   <i name="NELECT">    282.00000000</i>
   <i type="int" name="TURBO">     0</i>
   <i type="int" name="IRESTART">     0</i>
   <i type="int" name="NREBOOT">     0</i>
   <i type="int" name="NMIN">     0</i>
   <i name="EREF">      0.00000000</i>
   <separator name="electronic smearing" >
    <i type="int" name="ISMEAR">     0</i>
    <i name="SIGMA">      0.20000000</i>
    <i name="KSPACING">      0.50000000</i>
    <i type="logical" name="KGAMMA"> T  </i>
    <i type="logical" name="KBLOWUP"> T  </i>
   </separator>
   <separator name="electronic projectors" >
    <i type="logical" name="LREAL"> T  </i>
    <v name="ROPT">      0.00000000      0.00000000      0.00000000</v>
    <i type="int" name="LMAXPAW">  -100</i>
    <i type="int" name="LMAXMIX">     6</i>
    <i type="logical" name="NLSPLINE"> F  </i>
   </separator>
   <separator name="electronic startup" >
    <i type="int" name="ISTART">     0</i>
    <i type="int" name="ICHARG">     2</i>
    <i type="int" name="INIWAV">     1</i>
   </separator>
   <separator name="electronic spin" >
    <i type="int" name="ISPIN">     2</i>
    <i type="logical" name="LNONCOLLINEAR"> F  </i>
    <v name="MAGMOM">      1.00000000      1.00000000      1.00000000      1.00000000      1.00000000      1.00000000      1.00000000      1.00000000      0.00000000      0.00000000      0.00000000      0.00000000      0.00000000      0.00000000      0.00000000      0.00000000      0.00000000      0.00000000      0.00000000      0.00000000
      0.00000000      0.00000000      0.00000000      0.00000000      0.00000000      0.00000000      0.00000000      0.00000000      0.00000000      0.00000000      0.00000000      0.00000000      0.00000000      0.00000000</v>
    <i name="NUPDOWN">     -1.00000000</i>
    <i type="logical" name="LSORBIT"> F  </i>
    <v name="SAXIS">      0.00000000      0.00000000      1.00000000</v>
    <i type="logical" name="LSPIRAL"> F  </i>
    <v name="QSPIRAL">      0.00000000      0.00000000      0.00000000</v>
    <i type="logical" name="LZEROZ"> F  </i>
   </separator>
   <separator name="electronic exchange-correlation" >
    <i type="logical" name="LASPH"> T  </i>
   </separator>
   <separator name="electronic convergence" >
    <i type="int" name="NELM">    30</i>
    <i type="int" name="NELMDL">    -5</i>
    <i type="int" name="NELMIN">     5</i>
    <i name="ENINI">    400.00000000</i>
    <separator name="electronic convergence detail" >
     <i type="logical" name="LDIAG"> T  </i>
     <i type="logical" name="LSUBROT"> F  </i>
     <i name="WEIMIN">      0.00100000</i>
     <i name="EBREAK">      0.00000014</i>
     <i name="DEPER">      0.30000000</i>
     <i type="int" name="NRMM">     4</i>
     <i name="TIME">      0.40000000</i>
    </separator>
   </separator>
   <separator name="electronic mixer" >
    <i name="AMIX">      0.40000000</i>
    <i name="BMIX">      1.00000000</i>
    <i name="AMIN">      0.10000000</i>
    <i name="AMIX_MAG">      1.60000000</i>
    <i name="BMIX_MAG">      1.00000000</i>
    <separator name="electronic mixer details" >
     <i type="int" name="IMIX">     4</i>
     <i type="logical" name="MIXFIRST"> F  </i>
     <i type="int" name="MAXMIX">   -45</i>
     <i name="WC">    100.00000000</i>
     <i type="int" name="INIMIX">     1</i>
     <i type="int" name="MIXPRE">     1</i>
     <i type="int" name="MREMOVE">     5</i>
    </separator>
   </separator>
   <separator name="electronic dipolcorrection" >
    <i type="logical" name="LDIPOL"> T  </i>
    <i type="logical" name="LMONO"> F  </i>
    <i type="int" name="IDIPOL">     3</i>
    <i name="EPSILON">      1.00000000</i>
    <v name="DIPOL">   -100.00000000   -100.00000000   -100.00000000</v>
    <i name="EFIELD">      0.00000000</i>
    <i type="logical" name="LVACPOTAV"> F  </i>
   </separator>
  </separator>
  <separator name="grids" >
   <i type="int" name="NGX">    28</i>
   <i type="int" name="NGY">    28</i>
   <i type="int" name="NGZ">   144</i>
   <i type="int" name="NGXF">    56</i>
   <i type="int" name="NGYF">    56</i>
   <i type="int" name="NGZF">   288</i>
   <i type="logical" name="ADDGRID"> F  </i>
  </separator>
  <separator name="ionic" >
   <i type="int" name="NSW">     5</i>
   <i type="int" name="IBRION">     2</i>
   <i type="int" name="MDALGO">     0</i>
   <i type="int" name="ISIF">     2</i>
   <i name="PSTRESS">      0.00000000</i>
   <i name="EDIFFG">     -0.10000000</i>
   <i type="int" name="NFREE">     1</i>
   <i name="POTIM">      0.15000000</i>
   <i name="SMASS">     -3.00000000</i>
   <i name="SCALEE">      1.00000000</i>
  </separator>
  <separator name="ionic md" >
   <i name="TEBEG">      0.00010000</i>
   <i name="TEEND">      0.00010000</i>
   <i type="int" name="NBLOCK">     1</i>
   <i type="int" name="KBLOCK">     5</i>
   <i type="int" name="NPACO">   256</i>
   <i name="APACO">     10.00000000</i>
  </separator>
  <separator name="symmetry" >
   <i type="int" name="ISYM">     2</i>
   <i name="SYMPREC">      0.00001000</i>
  </separator>
  <separator name="dos" >
   <i type="int" name="LORBIT">    10</i>
   <v name="RWIGS">     -1.00000000     -1.00000000     -1.00000000</v>
   <i type="int" name="NEDOS">   301</i>
   <i name="EMIN">     10.00000000</i>
   <i name="EMAX">    -10.00000000</i>
   <i name="EFERMI">      0.00000000</i>
  </separator>
  <separator name="writing" >
   <i type="int" name="NWRITE">     2</i>
   <i type="logical" name="LWAVE"> F  </i>
   <i type="logical" name="LDOWNSAMPLE"> F  </i>
   <i type="logical" name="LCHARG"> F  </i>
   <i type="logical" name="LPARD"> F  </i>
   <i type="logical" name="LVTOT"> F  </i>
   <i type="logical" name="LVHAR"> F  </i>
   <i type="logical" name="LELF"> F  </i>
   <i type="logical" name="LOPTICS"> F  </i>
   <v name="STM">      0.00000000      0.00000000      0.00000000      0.00000000      0.00000000      0.00000000      0.00000000</v>
  </separator>
  <separator name="performance" >
   <i type="int" name="NPAR">    10</i>
   <i type="int" name="NSIM">    10</i>
   <i type="int" name="NBLK">    -1</i>
   <i type="logical" name="LPLANE"> T  </i>
   <i type="logical" name="LSCALAPACK"> T  </i>
   <i type="logical" name="LSCAAWARE"> F  </i>
   <i type="logical" name="LSCALU"> F  </i>
   <i type="logical" name="LASYNC"> F  </i>
   <i type="logical" name="LORBITALREAL"> F  </i>
  </separator>
  <separator name="miscellaneous" >
   <i type="int" name="IDIOT">     3</i>
   <i type="int" name="PHON_NSTRUCT">    -1</i>
   <i type="logical" name="LMUSIC"> F  </i>
   <v name="POMASS">     51.99600000    138.90000000     16.00000000</v>
   <v name="DARWINR">      0.00000000      0.00000000      0.00000000</v>
   <v name="DARWINV">      1.00000000      1.00000000      1.00000000</v>
   <i type="logical" name="LCORR"> T  </i>
  </separator>
  <i type="logical" name="GGA_COMPAT"> T  </i>
  <i type="logical" name="LBERRY"> F  </i>
  <i type="int" name="ICORELEVEL">     0</i>
  <i type="logical" name="LDAU"> F  </i>
  <i type="int" name="I_CONSTRAINED_M">     0</i>
  <separator name="electronic exchange-correlation" >
   <i type="string" name="GGA    ">PE</i>
   <i type="string" name="XC_C">1</i>
   <i type="int" name="VOSKOWN">     0</i>
   <i type="logical" name="LHFCALC"> F  </i>
   <i type="string" name="PRECFOCK"></i>
   <i type="logical" name="LSYMGRAD"> F  </i>
   <i type="logical" name="LHFONE"> F  </i>
   <i type="logical" name="LRHFCALC"> F  </i>
   <i type="logical" name="LTHOMAS"> F  </i>
   <i type="logical" name="LMODELHF"> F  </i>
   <i type="logical" name="LFOCKACE"> F  </i>
   <i name="ENCUT4O">     -1.00000000</i>
   <i type="int" name="EXXOEP">     0</i>
   <i type="int" name="FOURORBIT">     0</i>
   <i name="AEXX">      0.00000000</i>
   <i name="HFALPHA">      0.00000000</i>
   <i name="MCALPHA">      0.00000000</i>
   <i name="ALDAX">      1.00000000</i>
   <i name="AGGAX">      1.00000000</i>
   <i name="AMGGAX">      1.00000000</i>
   <i name="ALDAC">      1.00000000</i>
   <i name="AGGAC">      1.00000000</i>
   <i name="AMGGAC">      1.00000000</i>
   <i type="int" name="NKREDX">     1</i>
   <i type="int" name="NKREDY">     1</i>
   <i type="int" name="NKREDZ">     1</i>
   <i type="logical" name="SHIFTRED"> F  </i>
   <i type="logical" name="ODDONLY"> F  </i>
   <i type="logical" name="EVENONLY"> F  </i>
   <i type="int" name="LMAXFOCK">     0</i>
   <i type="int" name="NMAXFOCKAE">     0</i>
   <i type="logical" name="LFOCKAEDFT"> F  </i>
   <i name="HFSCREEN">      0.00000000</i>
   <i name="HFSCREENC">      0.00000000</i>
   <i type="int" name="NBANDSGWLOW">     0</i>
  </separator>
  <separator name="vdW DFT" >
   <i type="logical" name="LUSE_VDW"> F  </i>
   <i type="int" name="IVDW_NL">    -1</i>
   <i type="logical" name="LSPIN_VDW"> F  </i>
   <i name="ZAB_VDW">     -0.84910000</i>
   <i name="GAMMA_VDW">      1.39626340</i>
   <i name="ALPHA_VDW">      0.00000000</i>
   <i name="PARAM1">      0.12340000</i>
   <i name="PARAM2">      1.00000000</i>
   <i name="BPARAM">      6.30000000</i>
   <i name="CPARAM">      0.00930000</i>
  </separator>
  <separator name="model GW" >
   <i type="int" name="MODEL_GW">     0</i>
   <i name="MODEL_EPS0">     16.33566340</i>
   <i name="MODEL_ALPHA">      1.00000000</i>
  </separator>
  <separator name="linear response parameters" >
   <i type="logical" name="LEPSILON"> F  </i>
   <i type="logical" name="LRPA"> F  </i>
   <i type="logical" name="LNABLA"> F  </i>
   <i type="logical" name="LVEL"> F  </i>
   <i name="CSHIFT">      0.10000000</i>
   <i name="OMEGAMAX">     -1.00000000</i>
   <i name="DEG_THRESHOLD">      0.00200000</i>
   <i name="RTIME">     -0.10000000</i>
   <i name="WPLASMAI">      0.00000000</i>
   <v name="DFIELD">      0.00000000      0.00000000      0.00000000</v>
   <v name="WPLASMA">      0.00000000      0.00000000      0.00000000      0.00000000      0.00000000      0.00000000      0.00000000      0.00000000      0.00000000</v>
  </separator>
  <separator name="orbital magnetization" >
   <i type="logical" name="NUCIND"> F  </i>
   <v name="MAGPOS">      0.00000000      0.00000000      0.00000000</v>
   <i type="logical" name="LNICSALL"> T  </i>
   <i type="logical" name="ORBITALMAG"> F  </i>
   <i type="logical" name="LMAGBLOCH"> F  </i>
   <i type="logical" name="LCHIMAG"> F  </i>
   <i type="logical" name="LGAUGE"> T  </i>
   <i type="int" name="MAGATOM">     0</i>
   <v name="MAGDIPOL">      0.00000000      0.00000000      0.00000000</v>
   <v name="AVECCONST">      0.00000000      0.00000000      0.00000000</v>
  </separator>
  <separator name="response functions" >
   <i type="logical" name="LALL_IN_ONE"> F  </i>
   <i type="int" name="IALL_IN_ONE">    -1</i>
   <i type="int" name="NBANDS_WAVE">    -1</i>
   <i type="logical" name="LFINITE_TEMPERATURE"> F  </i>
   <i type="logical" name="LADDER"> F  </i>
   <i type="logical" name="LRPAFORCE"> F  </i>
   <i type="logical" name="LFXC"> F  </i>
   <i type="logical" name="LHARTREE"> T  </i>
   <i type="int" name="IBSE">     0</i>
   <v type="int" name="KPOINT">    -1     0     0     0</v>
   <i type="logical" name="LTCTC"> F  </i>
   <i type="logical" name="LTCTE"> F  </i>
   <i type="logical" name="LTETE"> F  </i>
   <i type="logical" name="LTRIPLET"> F  </i>
   <i type="logical" name="LFXCEPS"> F  </i>
   <i type="logical" name="LFXHEG"> F  </i>
   <i type="int" name="NATURALO">     2</i>
   <i type="logical" name="LHOLEGF"> F  </i>
   <i type="logical" name="L2ORDER"> F  </i>
   <i type="logical" name="LDMP1"> F  </i>
   <i type="logical" name="LMP2LT"> F  </i>
   <i type="logical" name="LSMP2LT"> F  </i>
   <i type="logical" name="LGWLF"> F  </i>
   <i name="ENCUTGW">     -1.60000002</i>
   <i name="ENCUTGWSOFT">     -1.60000002</i>
   <i name="ENCUTLF">     -1.00000000</i>
   <i type="logical" name="ESF_SPLINES"> F  </i>
   <i name="ESF_CONV">      0.01000000</i>
   <i type="int" name="ESF_NINTER">    15</i>
   <i type="int" name="LMAXMP2">    -1</i>
   <i name="SCISSOR">      0.00000000</i>
   <i type="int" name="NOMEGA">     0</i>
   <i type="int" name="NOMEGAR">     0</i>
   <i type="int" name="NBANDSGW">    -1</i>
   <i type="int" name="NBANDSO">    -1</i>
   <i type="int" name="NBANDSV">    -1</i>
   <i type="int" name="NELMGW">     1</i>
   <i type="int" name="NELMHF">     1</i>
   <i type="int" name="DIM">     3</i>
   <i type="int" name="IESPILON">     4</i>
   <i type="int" name="ANTIRES">     0</i>
   <i name="OMEGAMAX">    -30.00000000</i>
   <i name="OMEGAMIN">    -30.00000000</i>
   <i name="OMEGATL">   -200.00000000</i>
   <i type="int" name="OMEGAGRID">     0</i>
   <i name="CSHIFT">     -0.10000000</i>
   <i type="logical" name="LSELFENERGY"> F  </i>
   <i type="logical" name="LSPECTRAL"> F  </i>
   <i type="logical" name="LSPECTRALGW"> F  </i>
   <i type="logical" name="LSINGLES"> F  </i>
   <i type="logical" name="LFERMIGW"> F  </i>
   <i type="logical" name="ODDONLYGW"> F  </i>
   <i type="logical" name="EVENONLYGW"> F  </i>
   <i type="int" name="NKREDLFX">     1</i>
   <i type="int" name="NKREDLFY">     1</i>
   <i type="int" name="NKREDLFZ">     1</i>
   <i type="int" name="MAXMEM">  2800</i>
   <i type="int" name="TELESCOPE">     0</i>
   <i type="int" name="NTAUPAR">    -1</i>
   <i type="int" name="NOMEGAPAR">    -1</i>
   <i name="DAMP_NEWTON">      0.80000001</i>
   <i name="LAMBDA">      1.00000000</i>
  </separator>
  <separator name="External order field" >
   <i name="OFIELD_KAPPA">      0.00000000</i>
   <v name="OFIELD_K">      0.00000000      0.00000000      0.00000000</v>
   <i name="OFIELD_Q6_NEAR">      0.00000000</i>
   <i name="OFIELD_Q6_FAR">      0.00000000</i>
   <i name="OFIELD_A">      0.00000000</i>
  </separator>
  <separator name="optional k-points parameters" >
   <i type="int" name="KPOINTS_OPT_MODE">     1</i>
   <i type="logical" name="LKPOINTS_OPT"> F  </i>
  </separator>
 </parameters>
 <atominfo>
  <atoms>      34 </atoms>
  <types>       3 </types>
  <array name="atoms" >
   <dimension dim="1">ion</dimension>
   <field type="string">element</field>
   <field type="int">atomtype</field>
   <set>
    <rc><c>Cr</c><c>   1</c></rc>
    <rc><c>Cr</c><c>   1</c></rc>
    <rc><c>Cr</c><c>   1</c></rc>
    <rc><c>Cr</c><c>   1</c></rc>
    <rc><c>Cr</c><c>   1</c></rc>
    <rc><c>Cr</c><c>   1</c></rc>
    <rc><c>Cr</c><c>   1</c></rc>
    <rc><c>Cr</c><c>   1</c></rc>
    <rc><c>La</c><c>   2</c></rc>
    <rc><c>La</c><c>   2</c></rc>
    <rc><c>La</c><c>   2</c></rc>
    <rc><c>La</c><c>   2</c></rc>
    <rc><c>La</c><c>   2</c></rc>
    <rc><c>La</c><c>   2</c></rc>
    <rc><c>O </c><c>   3</c></rc>
    <rc><c>O </c><c>   3</c></rc>
    <rc><c>O </c><c>   3</c></rc>
    <rc><c>O </c><c>   3</c></rc>
    <rc><c>O </c><c>   3</c></rc>
    <rc><c>O </c><c>   3</c></rc>
    <rc><c>O </c><c>   3</c></rc>
    <rc><c>O </c><c>   3</c></rc>
    <rc><c>O </c><c>   3</c></rc>
    <rc><c>O </c><c>   3</c></rc>
    <rc><c>O </c><c>   3</c></rc>
    <rc><c>O </c><c>   3</c></rc>
    <rc><c>O </c><c>   3</c></rc>
    <rc><c>O </c><c>   3</c></rc>
    <rc><c>O </c><c>   3</c></rc>
    <rc><c>O </c><c>   3</c></rc>
    <rc><c>O </c><c>   3</c></rc>
    <rc><c>O </c><c>   3</c></rc>
    <rc><c>O </c><c>   3</c></rc>
    <rc><c>O </c><c>   3</c></rc>
   </set>
  </array>
  <array name="atomtypes" >
   <dimension dim="1">type</dimension>
   <field type="int">atomspertype</field>
   <field type="string">element</field>
   <field>mass</field>
   <field>valence</field>
   <field type="string">pseudopotential</field>
   <set>
    <rc><c>   8</c><c>Cr</c><c>     51.99600000</c><c>     12.00000000</c><c>  PAW_PBE Cr_pv 02Aug2007               </c></rc>
    <rc><c>   6</c><c>La</c><c>    138.90000000</c><c>     11.00000000</c><c>  PAW_PBE La 06Sep2000                  </c></rc>
    <rc><c>  20</c><c>O </c><c>     16.00000000</c><c>      6.00000000</c><c>  PAW_PBE O 08Apr2002                   </c></rc>
   </set>
  </array>
 </atominfo>
 <structure name="initialpos" >
  <crystal>
   <varray name="basis" >
    <v>       5.53670000       0.00000000       0.00000000 </v>
    <v>       0.00000000       5.74730000       0.00000000 </v>
    <v>       0.00000000       0.00000000      29.09039264 </v>
   </varray>
   <i name="volume">    925.68759245 </i>
   <varray name="rec_basis" >
    <v>       0.18061300       0.00000000       0.00000000 </v>
    <v>       0.00000000       0.17399475       0.00000000 </v>
    <v>       0.00000000       0.00000000       0.03437561 </v>
   </varray>
  </crystal>
  <varray name="positions" >
   <v>       0.00000000       0.50000000       0.00343756 </v>
   <v>       0.50000000       0.00000000       0.00343756 </v>
   <v>       0.50000000       0.00000000       0.13566163 </v>
   <v>       0.00000000       0.50000000       0.13566163 </v>
   <v>       0.00000000       0.50000000       0.26788569 </v>
   <v>       0.50000000       0.00000000       0.26788569 </v>
   <v>       0.50000000       0.00000000       0.40010976 </v>
   <v>       0.00000000       0.50000000       0.40010976 </v>
   <v>       0.50780000       0.54900000       0.06954959 </v>
   <v>       0.99220000       0.04900000       0.06954959 </v>
   <v>       0.49220000       0.45100000       0.20177366 </v>
   <v>       0.00780000       0.95100000       0.20177366 </v>
   <v>       0.50780000       0.54900000       0.33399773 </v>
   <v>       0.99220000       0.04900000       0.33399773 </v>
   <v>       0.77440000       0.80660000       0.01359237 </v>
   <v>       0.72560000       0.30660000       0.01359237 </v>
   <v>       0.42550000       0.98740000       0.06954959 </v>
   <v>       0.07450000       0.48740000       0.06954959 </v>
   <v>       0.72560000       0.30660000       0.12550682 </v>
   <v>       0.77440000       0.80660000       0.12550682 </v>
   <v>       0.22560000       0.19340000       0.14581644 </v>
   <v>       0.27440000       0.69340000       0.14581644 </v>
   <v>       0.57450000       0.01260000       0.20177366 </v>
   <v>       0.92550000       0.51260000       0.20177366 </v>
   <v>       0.27440000       0.69340000       0.25773088 </v>
   <v>       0.22560000       0.19340000       0.25773088 </v>
   <v>       0.77440000       0.80660000       0.27804050 </v>
   <v>       0.72560000       0.30660000       0.27804050 </v>
   <v>       0.42550000       0.98740000       0.33399773 </v>
   <v>       0.07450000       0.48740000       0.33399773 </v>
   <v>       0.72560000       0.30660000       0.38995495 </v>
   <v>       0.77440000       0.80660000       0.38995495 </v>
   <v>       0.22560000       0.19340000       0.41026457 </v>
   <v>       0.27440000       0.69340000       0.41026457 </v>
  </varray>
  <varray name="selective"  type="logical" >
   <v type="logical" >  F  F  F </v>
   <v type="logical" >  F  F  F </v>
   <v type="logical" >  F  F  F </v>
   <v type="logical" >  F  F  F </v>
   <v type="logical" >  T  T  T </v>
   <v type="logical" >  T  T  T </v>
   <v type="logical" >  T  T  T </v>
   <v type="logical" >  T  T  T </v>
   <v type="logical" >  F  F  F </v>
   <v type="logical" >  F  F  F </v>
   <v type="logical" >  F  F  F </v>
   <v type="logical" >  F  F  F </v>
   <v type="logical" >  T  T  T </v>
   <v type="logical" >  T  T  T </v>
   <v type="logical" >  F  F  F </v>
   <v type="logical" >  F  F  F </v>
   <v type="logical" >  F  F  F </v>
   <v type="logical" >  F  F  F </v>
   <v type="logical" >  F  F  F </v>
   <v type="logical" >  F  F  F </v>
   <v type="logical" >  F  F  F </v>
   <v type="logical" >  F  F  F </v>
   <v type="logical" >  F  F  F </v>
   <v type="logical" >  F  F  F </v>
   <v type="logical" >  T  T  T </v>
   <v type="logical" >  T  T  T </v>
   <v type="logical" >  T  T  T </v>
   <v type="logical" >  T  T  T </v>
   <v type="logical" >  T  T  T </v>
   <v type="logical" >  T  T  T </v>
   <v type="logical" >  T  T  T </v>
   <v type="logical" >  T  T  T </v>
   <v type="logical" >  T  T  T </v>
   <v type="logical" >  T  T  T </v>
  </varray>
  <nose>
   <v>      -3.00000000       0.00000000       0.00010000       0.00010000 </v>
  </nose>
 </structure>
 <calculation>
  <scstep>
   <time name="dav">    0.40    0.45</time>
   <time name="total">    1.28    1.34</time>
   <dipole>
    <v name="dipole">      0.00000000       0.00000000       0.00019784 </v>
    <i name="Tr[quadrupol]">  -1789.21651286 </i>
    <i name="Echarged">      0.00000000 </i>
    <i name="Edipol_quadrupol">      0.00000000 </i>
    <i name="Eion">      0.00000000 </i>
   </dipole>
   <energy>
    <i name="alphaZ">    575.29197329 </i>
    <i name="ewald"> 142367.13300268 </i>
    <i name="hartreedc">-166559.79506869 </i>
    <i name="XCdc">   1178.25468787 </i>
    <i name="pawpsdc">  21253.28231947 </i>
    <i name="pawaedc"> -21672.43951673 </i>
    <i name="eentropy">     -0.28315637 </i>
    <i name="bandstr">    204.94254221 </i>
    <i name="atom">  27024.21734940 </i>
    <i name="e_fr_energy">   4370.60413311 </i>
    <i name="e_wo_entrp">   4370.88728949 </i>
    <i name="e_0_energy">   4370.74571130 </i>
   </energy>
  </scstep>
  <scstep>
   <time name="dav">    0.37    0.38</time>
   <time name="total">    0.37    0.38</time>
   <dipole>
    <v name="dipole">      0.00000000       0.00000000       0.00019784 </v>
    <i name="Tr[quadrupol]">  -1789.21651286 </i>
    <i name="Echarged">      0.00000000 </i>
    <i name="Edipol_quadrupol">      0.00000000 </i>
    <i name="Eion">      0.00000000 </i>
   </dipole>
   <energy>
    <i name="e_fr_energy">    951.79513478 </i>
    <i name="e_wo_entrp">    952.40221497 </i>
    <i name="e_0_energy">    952.09867487 </i>
   </energy>
  </scstep>
  <scstep>
   <time name="dav">    0.45    0.46</time>
   <time name="total">    0.45    0.46</time>
   <dipole>
    <v name="dipole">      0.00000000       0.00000000       0.00019784 </v>
    <i name="Tr[quadrupol]">  -1789.21651286 </i>
    <i name="Echarged">      0.00000000 </i>
    <i name="Edipol_quadrupol">      0.00000000 </i>
    <i name="Eion">      0.00000000 </i>
   </dipole>
   <energy>
    <i name="e_fr_energy">   -162.31787692 </i>
    <i name="e_wo_entrp">   -161.08463293 </i>
    <i name="e_0_energy">   -161.70125492 </i>
   </energy>
  </scstep>
  <scstep>
   <time name="dav">    0.49    0.50</time>
   <time name="total">    0.49    0.50</time>
   <dipole>
    <v name="dipole">      0.00000000       0.00000000       0.00019784 </v>
    <i name="Tr[quadrupol]">  -1789.21651286 </i>
    <i name="Echarged">      0.00000000 </i>
    <i name="Edipol_quadrupol">      0.00000000 </i>
    <i name="Eion">      0.00000000 </i>
   </dipole>
   <energy>
    <i name="e_fr_energy">   -341.44884048 </i>
    <i name="e_wo_entrp">   -339.95037054 </i>
    <i name="e_0_energy">   -340.69960551 </i>
   </energy>
  </scstep>
  <scstep>
   <time name="dav">    0.60    0.61</time>
   <time name="total">    0.64    0.65</time>
   <dipole>
    <v name="dipole">      0.00000000       0.00000000       0.00019784 </v>
    <i name="Tr[quadrupol]">  -1789.21651286 </i>
    <i name="Echarged">      0.00000000 </i>
    <i name="Edipol_quadrupol">      0.00000000 </i>
    <i name="Eion">      0.00000000 </i>
   </dipole>
   <energy>
    <i name="e_fr_energy">   -354.38098729 </i>
    <i name="e_wo_entrp">   -353.02242849 </i>
    <i name="e_0_energy">   -353.70170789 </i>
   </energy>
  </scstep>
  <scstep>
   <time name="dav">    0.55    0.55</time>
   <time name="total">    1.52    1.53</time>
   <dipole>
    <v name="dipole">      0.00000000       0.00000000       0.82290223 </v>
    <i name="Tr[quadrupol]">  -1821.02236698 </i>
    <i name="Echarged">      0.00000000 </i>
    <i name="Edipol_quadrupol">      0.00000000 </i>
    <i name="Eion">      0.00000000 </i>
   </dipole>
   <energy>
    <i name="e_fr_energy">   -588.95691507 </i>
    <i name="e_wo_entrp">   -588.70565260 </i>
    <i name="e_0_energy">   -588.83128384 </i>
   </energy>
  </scstep>
  <scstep>
   <time name="dav">    0.61    0.61</time>
   <time name="total">    1.58    1.59</time>
   <dipole>
    <v name="dipole">      0.00000000       0.00000000       0.17451557 </v>
    <i name="Tr[quadrupol]">  -1808.48274427 </i>
    <i name="Echarged">      0.00000000 </i>
    <i name="Edipol_quadrupol">      0.00000000 </i>
    <i name="Eion">      0.00000000 </i>
   </dipole>
   <energy>
    <i name="e_fr_energy">   -421.79821319 </i>
    <i name="e_wo_entrp">   -421.15908055 </i>
    <i name="e_0_energy">   -421.47864687 </i>
   </energy>
  </scstep>
  <scstep>
   <time name="dav">    0.57    0.57</time>
   <time name="total">    1.53    1.55</time>
   <dipole>
    <v name="dipole">      0.00000000       0.00000000       2.06053673 </v>
    <i name="Tr[quadrupol]">  -1802.69986531 </i>
    <i name="Echarged">      0.00000000 </i>
    <i name="Edipol_quadrupol">      0.00000000 </i>
    <i name="Eion">      0.00000000 </i>
   </dipole>
   <energy>
    <i name="e_fr_energy">   -516.70854789 </i>
    <i name="e_wo_entrp">   -516.42503253 </i>
    <i name="e_0_energy">   -516.56679021 </i>
   </energy>
  </scstep>
  <scstep>
   <time name="dav">    0.52    0.52</time>
   <time name="total">    1.49    1.50</time>
   <dipole>
    <v name="dipole">      0.00000000       0.00000000      -0.30767511 </v>
    <i name="Tr[quadrupol]">  -1799.12422198 </i>
    <i name="Echarged">      0.00000000 </i>
    <i name="Edipol_quadrupol">      0.00000000 </i>
    <i name="Eion">      0.00000000 </i>
   </dipole>
   <energy>
    <i name="e_fr_energy">   -335.45852533 </i>
    <i name="e_wo_entrp">   -335.17778904 </i>
    <i name="e_0_energy">   -335.31815718 </i>
   </energy>
  </scstep>
  <scstep>
   <time name="dav">    0.50    0.50</time>
   <time name="total">    1.48    1.48</time>
   <dipole>
    <v name="dipole">      0.00000000       0.00000000       2.35939780 </v>
    <i name="Tr[quadrupol]">  -1808.90995728 </i>
    <i name="Echarged">      0.00000000 </i>
    <i name="Edipol_quadrupol">      0.00000000 </i>
    <i name="Eion">      0.00000000 </i>
   </dipole>
   <energy>
    <i name="e_fr_energy">   -475.59486199 </i>
    <i name="e_wo_entrp">   -475.10882788 </i>
    <i name="e_0_energy">   -475.35184494 </i>
   </energy>
  </scstep>
  <scstep>
   <time name="dav">    0.59    0.59</time>
   <time name="total">    1.56    1.57</time>
   <dipole>
    <v name="dipole">      0.00000000       0.00000000       1.44827822 </v>
    <i name="Tr[quadrupol]">  -1808.69269373 </i>
    <i name="Echarged">      0.00000000 </i>
    <i name="Edipol_quadrupol">      0.00000000 </i>
    <i name="Eion">      0.00000000 </i>
   </dipole>
   <energy>
    <i name="e_fr_energy">   -388.73870356 </i>
    <i name="e_wo_entrp">   -388.57520288 </i>
    <i name="e_0_energy">   -388.65695322 </i>
   </energy>
  </scstep>
  <scstep>
   <time name="dav">    0.44    0.44</time>
   <time name="total">    1.40    1.41</time>
   <dipole>
    <v name="dipole">      0.00000000       0.00000000       1.53458456 </v>
    <i name="Tr[quadrupol]">  -1798.94223851 </i>
    <i name="Echarged">      0.00000000 </i>
    <i name="Edipol_quadrupol">      0.00000000 </i>
    <i name="Eion">      0.00000000 </i>
   </dipole>
   <energy>
    <i name="e_fr_energy">   -344.14040317 </i>
    <i name="e_wo_entrp">   -343.70623326 </i>
    <i name="e_0_energy">   -343.92331821 </i>
   </energy>
  </scstep>
  <scstep>
   <time name="dav">    0.54    0.54</time>
   <time name="total">    1.51    1.52</time>
   <dipole>
    <v name="dipole">      0.00000000       0.00000000       0.38130968 </v>
    <i name="Tr[quadrupol]">  -1805.07488360 </i>
    <i name="Echarged">      0.00000000 </i>
    <i name="Edipol_quadrupol">      0.00000000 </i>
    <i name="Eion">      0.00000000 </i>
   </dipole>
   <energy>
    <i name="e_fr_energy">   -286.39759704 </i>
    <i name="e_wo_entrp">   -285.89346773 </i>
    <i name="e_0_energy">   -286.14553238 </i>
   </energy>
  </scstep>
  <scstep>
   <time name="dav">    0.48    0.48</time>
   <time name="total">    1.44    1.46</time>
   <dipole>
    <v name="dipole">      0.00000000       0.00000000       0.27690753 </v>
    <i name="Tr[quadrupol]">  -1803.17464833 </i>
    <i name="Echarged">      0.00000000 </i>
    <i name="Edipol_quadrupol">      0.00000000 </i>
    <i name="Eion">      0.00000000 </i>
   </dipole>
   <energy>
    <i name="e_fr_energy">   -280.58375675 </i>
    <i name="e_wo_entrp">   -279.88121148 </i>
    <i name="e_0_energy">   -280.23248412 </i>
   </energy>
  </scstep>
  <scstep>
   <time name="dav">    0.57    0.57</time>
   <time name="total">    1.53    1.54</time>
   <dipole>
    <v name="dipole">      0.00000000       0.00000000       0.07659790 </v>
    <i name="Tr[quadrupol]">  -1803.92664998 </i>
    <i name="Echarged">      0.00000000 </i>
    <i name="Edipol_quadrupol">      0.00000000 </i>
    <i name="Eion">      0.00000000 </i>
   </dipole>
   <energy>
    <i name="e_fr_energy">   -279.92319053 </i>
    <i name="e_wo_entrp">   -279.28039294 </i>
    <i name="e_0_energy">   -279.60179173 </i>
   </energy>
  </scstep>
  <scstep>
   <time name="dav">    0.45    0.45</time>
   <time name="total">    1.42    1.43</time>
   <dipole>
    <v name="dipole">      0.00000000       0.00000000      -0.03465586 </v>
    <i name="Tr[quadrupol]">  -1803.05224846 </i>
    <i name="Echarged">      0.00000000 </i>
    <i name="Edipol_quadrupol">      0.00000000 </i>
    <i name="Eion">      0.00000000 </i>
   </dipole>
   <energy>
    <i name="e_fr_energy">   -278.34544503 </i>
    <i name="e_wo_entrp">   -277.75213566 </i>
    <i name="e_0_energy">   -278.04879034 </i>
   </energy>
  </scstep>
  <scstep>
   <time name="dav">    0.53    0.53</time>
   <time name="total">    1.50    1.51</time>
   <dipole>
    <v name="dipole">      0.00000000       0.00000000      -0.02332519 </v>
    <i name="Tr[quadrupol]">  -1802.65463111 </i>
    <i name="Echarged">      0.00000000 </i>
    <i name="Edipol_quadrupol">      0.00000000 </i>
    <i name="Eion">      0.00000000 </i>
   </dipole>
   <energy>
    <i name="e_fr_energy">   -277.24298755 </i>
    <i name="e_wo_entrp">   -276.59910101 </i>
    <i name="e_0_energy">   -276.92104428 </i>
   </energy>
  </scstep>
  <scstep>
   <time name="dav">    0.56    0.57</time>
   <time name="total">    1.53    1.54</time>
   <dipole>
    <v name="dipole">      0.00000000       0.00000000      -0.12125954 </v>
    <i name="Tr[quadrupol]">  -1802.30076242 </i>
    <i name="Echarged">      0.00000000 </i>
    <i name="Edipol_quadrupol">      0.00000000 </i>
    <i name="Eion">      0.00000000 </i>
   </dipole>
   <energy>
    <i name="e_fr_energy">   -278.36216687 </i>
    <i name="e_wo_entrp">   -277.79836086 </i>
    <i name="e_0_energy">   -278.08026386 </i>
   </energy>
  </scstep>
  <scstep>
   <time name="dav">    0.53    0.53</time>
   <time name="total">    1.50    1.51</time>
   <dipole>
    <v name="dipole">      0.00000000       0.00000000      -0.20356459 </v>
    <i name="Tr[quadrupol]">  -1802.27970543 </i>
    <i name="Echarged">      0.00000000 </i>
    <i name="Edipol_quadrupol">      0.00000000 </i>
    <i name="Eion">      0.00000000 </i>
   </dipole>
   <energy>
    <i name="e_fr_energy">   -279.15138931 </i>
    <i name="e_wo_entrp">   -278.50273755 </i>
    <i name="e_0_energy">   -278.82706343 </i>
   </energy>
  </scstep>
  <scstep>
   <time name="dav">    0.42    0.43</time>
   <time name="total">    1.39    1.41</time>
   <dipole>
    <v name="dipole">      0.00000000       0.00000000      -0.16763635 </v>
    <i name="Tr[quadrupol]">  -1802.20561665 </i>
    <i name="Echarged">      0.00000000 </i>
    <i name="Edipol_quadrupol">      0.00000000 </i>
    <i name="Eion">      0.00000000 </i>
   </dipole>
   <energy>
    <i name="e_fr_energy">   -276.59535157 </i>
    <i name="e_wo_entrp">   -276.13897036 </i>
    <i name="e_0_energy">   -276.36716097 </i>
   </energy>
  </scstep>
  <scstep>
   <time name="dav">    0.51    0.51</time>
   <time name="total">    1.48    1.49</time>
   <dipole>
    <v name="dipole">      0.00000000       0.00000000       0.02750134 </v>
    <i name="Tr[quadrupol]">  -1801.56419315 </i>
    <i name="Echarged">      0.00000000 </i>
    <i name="Edipol_quadrupol">      0.00000000 </i>
    <i name="Eion">      0.00000000 </i>
   </dipole>
   <energy>
    <i name="e_fr_energy">   -277.46608957 </i>
    <i name="e_wo_entrp">   -277.00878527 </i>
    <i name="e_0_energy">   -277.23743742 </i>
   </energy>
  </scstep>
  <scstep>
   <time name="dav">    0.43    0.44</time>
   <time name="total">    1.41    1.42</time>
   <dipole>
    <v name="dipole">      0.00000000       0.00000000       0.03277468 </v>
    <i name="Tr[quadrupol]">  -1801.75735511 </i>
    <i name="Echarged">      0.00000000 </i>
    <i name="Edipol_quadrupol">      0.00000000 </i>
    <i name="Eion">      0.00000000 </i>
   </dipole>
   <energy>
    <i name="e_fr_energy">   -274.47172561 </i>
    <i name="e_wo_entrp">   -274.04597898 </i>
    <i name="e_0_energy">   -274.25885229 </i>
   </energy>
  </scstep>
  <scstep>
   <time name="dav">    0.51    0.51</time>
   <time name="total">    1.48    1.49</time>
   <dipole>
    <v name="dipole">      0.00000000       0.00000000       0.09733945 </v>
    <i name="Tr[quadrupol]">  -1801.63570745 </i>
    <i name="Echarged">      0.00000000 </i>
    <i name="Edipol_quadrupol">      0.00000000 </i>
    <i name="Eion">      0.00000000 </i>
   </dipole>
   <energy>
    <i name="e_fr_energy">   -273.99031575 </i>
    <i name="e_wo_entrp">   -273.66337793 </i>
    <i name="e_0_energy">   -273.82684684 </i>
   </energy>
  </scstep>
  <scstep>
   <time name="dav">    0.49    0.49</time>
   <time name="total">    1.46    1.47</time>
   <dipole>
    <v name="dipole">      0.00000000       0.00000000       0.15738801 </v>
    <i name="Tr[quadrupol]">  -1801.77475506 </i>
    <i name="Echarged">      0.00000000 </i>
    <i name="Edipol_quadrupol">      0.00000000 </i>
    <i name="Eion">      0.00000000 </i>
   </dipole>
   <energy>
    <i name="e_fr_energy">   -273.72884386 </i>
    <i name="e_wo_entrp">   -273.44990082 </i>
    <i name="e_0_energy">   -273.58937234 </i>
   </energy>
  </scstep>
  <scstep>
   <time name="dav">    0.51    0.51</time>
   <time name="total">    1.49    1.49</time>
   <dipole>
    <v name="dipole">      0.00000000       0.00000000       0.17861824 </v>
    <i name="Tr[quadrupol]">  -1801.99328561 </i>
    <i name="Echarged">      0.00000000 </i>
    <i name="Edipol_quadrupol">      0.00000000 </i>
    <i name="Eion">      0.00000000 </i>
   </dipole>
   <energy>
    <i name="e_fr_energy">   -273.43607633 </i>
    <i name="e_wo_entrp">   -273.07408241 </i>
    <i name="e_0_energy">   -273.25507937 </i>
   </energy>
  </scstep>
  <scstep>
   <time name="dav">    0.46    0.46</time>
   <time name="total">    1.43    1.44</time>
   <dipole>
    <v name="dipole">      0.00000000       0.00000000       0.17317415 </v>
    <i name="Tr[quadrupol]">  -1801.92608275 </i>
    <i name="Echarged">      0.00000000 </i>
    <i name="Edipol_quadrupol">      0.00000000 </i>
    <i name="Eion">      0.00000000 </i>
   </dipole>
   <energy>
    <i name="e_fr_energy">   -273.60036197 </i>
    <i name="e_wo_entrp">   -273.18823545 </i>
    <i name="e_0_energy">   -273.39429871 </i>
   </energy>
  </scstep>
  <scstep>
   <time name="dav">    0.50    0.50</time>
   <time name="total">    1.47    1.48</time>
   <dipole>
    <v name="dipole">      0.00000000       0.00000000       0.17723821 </v>
    <i name="Tr[quadrupol]">  -1801.88143056 </i>
    <i name="Echarged">      0.00000000 </i>
    <i name="Edipol_quadrupol">      0.00000000 </i>
    <i name="Eion">      0.00000000 </i>
   </dipole>
   <energy>
    <i name="e_fr_energy">   -273.66517528 </i>
    <i name="e_wo_entrp">   -273.28355403 </i>
    <i name="e_0_energy">   -273.47436465 </i>
   </energy>
  </scstep>
  <scstep>
   <time name="dav">    0.41    0.41</time>
   <time name="total">    1.38    1.39</time>
   <dipole>
    <v name="dipole">      0.00000000       0.00000000       0.18827474 </v>
    <i name="Tr[quadrupol]">  -1801.86265040 </i>
    <i name="Echarged">      0.00000000 </i>
    <i name="Edipol_quadrupol">      0.00000000 </i>
    <i name="Eion">      0.00000000 </i>
   </dipole>
   <energy>
    <i name="e_fr_energy">   -274.12624147 </i>
    <i name="e_wo_entrp">   -273.78329361 </i>
    <i name="e_0_energy">   -273.95476754 </i>
   </energy>
  </scstep>
  <scstep>
   <time name="dav">    0.41    0.41</time>
   <time name="total">    1.38    1.39</time>
   <dipole>
    <v name="dipole">      0.00000000       0.00000000       0.21278584 </v>
    <i name="Tr[quadrupol]">  -1801.73372676 </i>
    <i name="Echarged">      0.00000000 </i>
    <i name="Edipol_quadrupol">      0.00000000 </i>
    <i name="Eion">      0.00000000 </i>
   </dipole>
   <energy>
    <i name="e_fr_energy">   -274.71374226 </i>
    <i name="e_wo_entrp">   -274.37289542 </i>
    <i name="e_0_energy">   -274.54331884 </i>
   </energy>
  </scstep>
  <scstep>
   <time name="dav">    0.54    0.54</time>
   <time name="total">    1.47    1.48</time>
   <dipole>
    <v name="dipole">      0.00000000       0.00000000       0.20199588 </v>
    <i name="Tr[quadrupol]">  -1801.57941369 </i>
    <i name="Echarged">      0.00000000 </i>
    <i name="Edipol_quadrupol">      0.00000000 </i>
    <i name="Eion">      0.00000000 </i>
   </dipole>
   <energy>
    <i name="alphaZ">    564.40828872 </i>
    <i name="ewald"> 142367.13300268 </i>
    <i name="hartreedc">-166996.07201688 </i>
    <i name="XCdc">   1190.45579841 </i>
    <i name="pawpsdc">  28917.02771211 </i>
    <i name="pawaedc"> -29361.63389685 </i>
    <i name="eentropy">     -0.35786026 </i>
    <i name="bandstr">  -3980.04940361 </i>
    <i name="atom">  27024.21734940 </i>
    <i name="e_fr_energy">   -274.87102629 </i>
    <i name="e_wo_entrp">   -274.51316603 </i>
    <i name="e_0_energy">   -274.69209616 </i>
   </energy>
  </scstep>
  <structure>
   <crystal>
    <varray name="basis" >
     <v>       5.53670000       0.00000000       0.00000000 </v>
     <v>       0.00000000       5.74730000       0.00000000 </v>
     <v>       0.00000000       0.00000000      29.09039264 </v>
    </varray>
    <i name="volume">    925.68759245 </i>
    <varray name="rec_basis" >
     <v>       0.18061300       0.00000000       0.00000000 </v>
     <v>       0.00000000       0.17399475       0.00000000 </v>
     <v>       0.00000000       0.00000000       0.03437561 </v>
    </varray>
   </crystal>
   <varray name="positions" >
    <v>       0.00000000       0.50000000       0.00343756 </v>
    <v>       0.50000000       0.00000000       0.00343756 </v>
    <v>       0.50000000       0.00000000       0.13566163 </v>
    <v>       0.00000000       0.50000000       0.13566163 </v>
    <v>       0.00000000       0.50000000       0.26788569 </v>
    <v>       0.50000000       0.00000000       0.26788569 </v>
    <v>       0.50000000       0.00000000       0.40010976 </v>
    <v>       0.00000000       0.50000000       0.40010976 </v>
    <v>       0.50780000       0.54900000       0.06954959 </v>
    <v>       0.99220000       0.04900000       0.06954959 </v>
    <v>       0.49220000       0.45100000       0.20177366 </v>
    <v>       0.00780000       0.95100000       0.20177366 </v>
    <v>       0.50780000       0.54900000       0.33399773 </v>
    <v>       0.99220000       0.04900000       0.33399773 </v>
    <v>       0.77440000       0.80660000       0.01359237 </v>
    <v>       0.72560000       0.30660000       0.01359237 </v>
    <v>       0.42550000       0.98740000       0.06954959 </v>
    <v>       0.07450000       0.48740000       0.06954959 </v>
    <v>       0.72560000       0.30660000       0.12550682 </v>
    <v>       0.77440000       0.80660000       0.12550682 </v>
    <v>       0.22560000       0.19340000       0.14581644 </v>
    <v>       0.27440000       0.69340000       0.14581644 </v>
    <v>       0.57450000       0.01260000       0.20177366 </v>
    <v>       0.92550000       0.51260000       0.20177366 </v>
    <v>       0.27440000       0.69340000       0.25773088 </v>
    <v>       0.22560000       0.19340000       0.25773088 </v>
    <v>       0.77440000       0.80660000       0.27804050 </v>
    <v>       0.72560000       0.30660000       0.27804050 </v>
    <v>       0.42550000       0.98740000       0.33399773 </v>
    <v>       0.07450000       0.48740000       0.33399773 </v>
    <v>       0.72560000       0.30660000       0.38995495 </v>
    <v>       0.77440000       0.80660000       0.38995495 </v>
    <v>       0.22560000       0.19340000       0.41026457 </v>
    <v>       0.27440000       0.69340000       0.41026457 </v>
   </varray>
  </structure>
  <varray name="forces" >
   <v>      -0.68397459       1.30936444       4.11193118 </v>
   <v>       0.68397459       1.30936444       4.11193118 </v>
   <v>      -0.16361133      -0.14324203       1.48870028 </v>
   <v>       0.16361133      -0.14324203       1.48870028 </v>
   <v>      -0.01980950      -0.16118121       2.04811840 </v>
   <v>       0.01980950      -0.16118121       2.04811840 </v>
   <v>      -2.54892863       0.82148880       0.35707743 </v>
   <v>       2.54892863       0.82148880       0.35707743 </v>
   <v>       0.84520570      -1.05784011       0.18046004 </v>
   <v>      -0.84520570      -1.05784011       0.18046004 </v>
   <v>      -0.50402413       0.86157074       2.00153507 </v>
   <v>       0.50402413       0.86157074       2.00153507 </v>
   <v>       0.20950989      -1.12513208       2.36929184 </v>
   <v>      -0.20950989      -1.12513208       2.36929184 </v>
   <v>       3.72936832      -0.58287759       3.04776389 </v>
   <v>      -3.72936832      -0.58287759       3.04776389 </v>
   <v>       0.28382845       1.01069343      -0.63816130 </v>
   <v>      -0.28382845       1.01069343      -0.63816130 </v>
   <v>      -4.09182132      -0.59619477      -3.79636026 </v>
   <v>       4.09182132      -0.59619477      -3.79636026 </v>
   <v>      -5.54888611      -0.42371418       2.35131110 </v>
   <v>       5.54888611      -0.42371418       2.35131110 </v>
   <v>      -0.58464039      -2.97506105      -1.59643684 </v>
   <v>       0.58464039      -2.97506105      -1.59643684 </v>
   <v>       3.41738403       0.78623592      -3.69551666 </v>
   <v>      -3.41738403       0.78623592      -3.69551666 </v>
   <v>       5.26354737       0.15318639       0.42514526 </v>
   <v>      -5.26354737       0.15318639       0.42514526 </v>
   <v>       1.23467392       3.79017462      -1.35913888 </v>
   <v>      -1.23467392       3.79017462      -1.35913888 </v>
   <v>      -1.21290891      -1.30326412      -3.42123633 </v>
   <v>       1.21290891      -1.30326412      -3.42123633 </v>
   <v>      -2.46675812      -0.36420720      -3.87448422 </v>
   <v>       2.46675812      -0.36420720      -3.87448422 </v>
  </varray>
  <varray name="stress" >
   <v>      24.62136090       0.00000000       0.00000000 </v>
   <v>       0.00000000      57.42436605      17.38594951 </v>
   <v>       0.00000000      17.38036829    -117.59432675 </v>
  </varray>
  <energy>
   <i name="e_fr_energy">   -274.87102629 </i>
   <i name="e_wo_entrp">   -274.51316603 </i>
   <i name="e_0_energy">   -274.69209616 </i>
  </energy>
  <time name="totalsc">   42.30   42.67</time>
 </calculation>
 <calculation>
  <scstep>
   <time name="dav">    0.38    0.38</time>
   <time name="total">    1.34    1.35</time>
   <dipole>
    <v name="dipole">      0.00000000       0.00000000       0.17595659 </v>
    <i name="Tr[quadrupol]">  -1801.06329660 </i>
    <i name="Echarged">      0.00000000 </i>
    <i name="Edipol_quadrupol">      0.00000000 </i>
    <i name="Eion">      0.00000000 </i>
   </dipole>
   <energy>
    <i name="alphaZ">    565.82726477 </i>
    <i name="ewald"> 142596.80559796 </i>
    <i name="hartreedc">-167209.04990077 </i>
    <i name="XCdc">   1190.30243041 </i>
    <i name="pawpsdc">  28975.66818291 </i>
    <i name="pawaedc"> -29420.30487358 </i>
    <i name="eentropy">     -0.34482378 </i>
    <i name="bandstr">  -3998.03787533 </i>
    <i name="atom">  27024.21734940 </i>
    <i name="e_fr_energy">   -274.91664800 </i>
    <i name="e_wo_entrp">   -274.57182422 </i>
    <i name="e_0_energy">   -274.74423611 </i>
   </energy>
  </scstep>
  <scstep>
   <time name="dav">    0.56    0.56</time>
   <time name="total">    1.53    1.54</time>
   <dipole>
    <v name="dipole">      0.00000000       0.00000000      -2.27558155 </v>
    <i name="Tr[quadrupol]">  -1802.20174656 </i>
    <i name="Echarged">      0.00000000 </i>
    <i name="Edipol_quadrupol">      0.00000000 </i>
    <i name="Eion">      0.00000000 </i>
   </dipole>
   <energy>
    <i name="e_fr_energy">   -511.06095376 </i>
    <i name="e_wo_entrp">   -510.58480679 </i>
    <i name="e_0_energy">   -510.82288028 </i>
   </energy>
  </scstep>
  <scstep>
   <time name="dav">    0.51    0.51</time>
   <time name="total">    1.47    1.48</time>
   <dipole>
    <v name="dipole">      0.00000000       0.00000000      -0.63630589 </v>
    <i name="Tr[quadrupol]">  -1801.81481221 </i>
    <i name="Echarged">      0.00000000 </i>
    <i name="Edipol_quadrupol">      0.00000000 </i>
    <i name="Eion">      0.00000000 </i>
   </dipole>
   <energy>
    <i name="e_fr_energy">   -344.15580201 </i>
    <i name="e_wo_entrp">   -343.92023763 </i>
    <i name="e_0_energy">   -344.03801982 </i>
   </energy>
  </scstep>
  <scstep>
   <time name="dav">    0.46    0.46</time>
   <time name="total">    1.43    1.44</time>
   <dipole>
    <v name="dipole">      0.00000000       0.00000000      -0.06816073 </v>
    <i name="Tr[quadrupol]">  -1800.79235790 </i>
    <i name="Echarged">      0.00000000 </i>
    <i name="Edipol_quadrupol">      0.00000000 </i>
    <i name="Eion">      0.00000000 </i>
   </dipole>
   <energy>
    <i name="e_fr_energy">   -282.55032836 </i>
    <i name="e_wo_entrp">   -282.19084228 </i>
    <i name="e_0_energy">   -282.37058532 </i>
   </energy>
  </scstep>
  <scstep>
   <time name="dav">    0.53    0.53</time>
   <time name="total">    1.50    1.51</time>
   <dipole>
    <v name="dipole">      0.00000000       0.00000000       0.43902150 </v>
    <i name="Tr[quadrupol]">  -1803.09833818 </i>
    <i name="Echarged">      0.00000000 </i>
    <i name="Edipol_quadrupol">      0.00000000 </i>
    <i name="Eion">      0.00000000 </i>
   </dipole>
   <energy>
    <i name="e_fr_energy">   -277.58054141 </i>
    <i name="e_wo_entrp">   -277.30952093 </i>
    <i name="e_0_energy">   -277.44503117 </i>
   </energy>
  </scstep>
  <scstep>
   <time name="dav">    0.51    0.52</time>
   <time name="total">    1.48    1.49</time>
   <dipole>
    <v name="dipole">      0.00000000       0.00000000       0.26313441 </v>
    <i name="Tr[quadrupol]">  -1803.59813939 </i>
    <i name="Echarged">      0.00000000 </i>
    <i name="Edipol_quadrupol">      0.00000000 </i>
    <i name="Eion">      0.00000000 </i>
   </dipole>
   <energy>
    <i name="e_fr_energy">   -277.06580002 </i>
    <i name="e_wo_entrp">   -276.61643377 </i>
    <i name="e_0_energy">   -276.84111690 </i>
   </energy>
  </scstep>
  <scstep>
   <time name="dav">    0.46    0.46</time>
   <time name="total">    1.43    1.44</time>
   <dipole>
    <v name="dipole">      0.00000000       0.00000000       0.35077767 </v>
    <i name="Tr[quadrupol]">  -1801.41238473 </i>
    <i name="Echarged">      0.00000000 </i>
    <i name="Edipol_quadrupol">      0.00000000 </i>
    <i name="Eion">      0.00000000 </i>
   </dipole>
   <energy>
    <i name="e_fr_energy">   -280.09457255 </i>
    <i name="e_wo_entrp">   -279.72759970 </i>
    <i name="e_0_energy">   -279.91108613 </i>
   </energy>
  </scstep>
  <scstep>
   <time name="dav">    0.46    0.46</time>
   <time name="total">    1.42    1.43</time>
   <dipole>
    <v name="dipole">      0.00000000       0.00000000       0.07432200 </v>
    <i name="Tr[quadrupol]">  -1802.40288732 </i>
    <i name="Echarged">      0.00000000 </i>
    <i name="Edipol_quadrupol">      0.00000000 </i>
    <i name="Eion">      0.00000000 </i>
   </dipole>
   <energy>
    <i name="e_fr_energy">   -276.27735164 </i>
    <i name="e_wo_entrp">   -275.66995567 </i>
    <i name="e_0_energy">   -275.97365365 </i>
   </energy>
  </scstep>
  <scstep>
   <time name="dav">    0.48    0.48</time>
   <time name="total">    1.45    1.46</time>
   <dipole>
    <v name="dipole">      0.00000000       0.00000000       0.14772129 </v>
    <i name="Tr[quadrupol]">  -1802.43683116 </i>
    <i name="Echarged">      0.00000000 </i>
    <i name="Edipol_quadrupol">      0.00000000 </i>
    <i name="Eion">      0.00000000 </i>
   </dipole>
   <energy>
    <i name="e_fr_energy">   -275.84921281 </i>
    <i name="e_wo_entrp">   -275.25506830 </i>
    <i name="e_0_energy">   -275.55214056 </i>
   </energy>
  </scstep>
  <scstep>
   <time name="dav">    0.52    0.52</time>
   <time name="total">    1.48    1.49</time>
   <dipole>
    <v name="dipole">      0.00000000       0.00000000       0.10019097 </v>
    <i name="Tr[quadrupol]">  -1802.63308762 </i>
    <i name="Echarged">      0.00000000 </i>
    <i name="Edipol_quadrupol">      0.00000000 </i>
    <i name="Eion">      0.00000000 </i>
   </dipole>
   <energy>
    <i name="e_fr_energy">   -276.69786487 </i>
    <i name="e_wo_entrp">   -276.15555983 </i>
    <i name="e_0_energy">   -276.42671235 </i>
   </energy>
  </scstep>
  <scstep>
   <time name="dav">    0.47    0.48</time>
   <time name="total">    1.44    1.45</time>
   <dipole>
    <v name="dipole">      0.00000000       0.00000000       0.01835367 </v>
    <i name="Tr[quadrupol]">  -1802.97258478 </i>
    <i name="Echarged">      0.00000000 </i>
    <i name="Edipol_quadrupol">      0.00000000 </i>
    <i name="Eion">      0.00000000 </i>
   </dipole>
   <energy>
    <i name="e_fr_energy">   -277.29110902 </i>
    <i name="e_wo_entrp">   -276.77066259 </i>
    <i name="e_0_energy">   -277.03088580 </i>
   </energy>
  </scstep>
  <scstep>
   <time name="dav">    0.49    0.49</time>
   <time name="total">    1.46    1.47</time>
   <dipole>
    <v name="dipole">      0.00000000       0.00000000       0.02743358 </v>
    <i name="Tr[quadrupol]">  -1802.98621329 </i>
    <i name="Echarged">      0.00000000 </i>
    <i name="Edipol_quadrupol">      0.00000000 </i>
    <i name="Eion">      0.00000000 </i>
   </dipole>
   <energy>
    <i name="e_fr_energy">   -276.71538521 </i>
    <i name="e_wo_entrp">   -276.16472171 </i>
    <i name="e_0_energy">   -276.44005346 </i>
   </energy>
  </scstep>
  <scstep>
   <time name="dav">    0.48    0.48</time>
   <time name="total">    1.45    1.46</time>
   <dipole>
    <v name="dipole">      0.00000000       0.00000000       0.07716643 </v>
    <i name="Tr[quadrupol]">  -1802.82707156 </i>
    <i name="Echarged">      0.00000000 </i>
    <i name="Edipol_quadrupol">      0.00000000 </i>
    <i name="Eion">      0.00000000 </i>
   </dipole>
   <energy>
    <i name="e_fr_energy">   -276.64098953 </i>
    <i name="e_wo_entrp">   -276.07669150 </i>
    <i name="e_0_energy">   -276.35884051 </i>
   </energy>
  </scstep>
  <scstep>
   <time name="dav">    0.43    0.43</time>
   <time name="total">    1.39    1.41</time>
   <dipole>
    <v name="dipole">      0.00000000       0.00000000      -0.05452880 </v>
    <i name="Tr[quadrupol]">  -1803.29261810 </i>
    <i name="Echarged">      0.00000000 </i>
    <i name="Edipol_quadrupol">      0.00000000 </i>
    <i name="Eion">      0.00000000 </i>
   </dipole>
   <energy>
    <i name="e_fr_energy">   -278.49419871 </i>
    <i name="e_wo_entrp">   -277.93964383 </i>
    <i name="e_0_energy">   -278.21692127 </i>
   </energy>
  </scstep>
  <scstep>
   <time name="dav">    0.49    0.49</time>
   <time name="total">    1.46    1.47</time>
   <dipole>
    <v name="dipole">      0.00000000       0.00000000      -0.01656264 </v>
    <i name="Tr[quadrupol]">  -1803.57858331 </i>
    <i name="Echarged">      0.00000000 </i>
    <i name="Edipol_quadrupol">      0.00000000 </i>
    <i name="Eion">      0.00000000 </i>
   </dipole>
   <energy>
    <i name="e_fr_energy">   -277.33626993 </i>
    <i name="e_wo_entrp">   -276.86712779 </i>
    <i name="e_0_energy">   -277.10169886 </i>
   </energy>
  </scstep>
  <scstep>
   <time name="dav">    0.52    0.52</time>
   <time name="total">    1.48    1.49</time>
   <dipole>
    <v name="dipole">      0.00000000       0.00000000       0.01124000 </v>
    <i name="Tr[quadrupol]">  -1803.78515879 </i>
    <i name="Echarged">      0.00000000 </i>
    <i name="Edipol_quadrupol">      0.00000000 </i>
    <i name="Eion">      0.00000000 </i>
   </dipole>
   <energy>
    <i name="e_fr_energy">   -277.05555113 </i>
    <i name="e_wo_entrp">   -276.68177735 </i>
    <i name="e_0_energy">   -276.86866424 </i>
   </energy>
  </scstep>
  <scstep>
   <time name="dav">    0.47    0.47</time>
   <time name="total">    1.44    1.45</time>
   <dipole>
    <v name="dipole">      0.00000000       0.00000000       0.02148517 </v>
    <i name="Tr[quadrupol]">  -1803.99104815 </i>
    <i name="Echarged">      0.00000000 </i>
    <i name="Edipol_quadrupol">      0.00000000 </i>
    <i name="Eion">      0.00000000 </i>
   </dipole>
   <energy>
    <i name="e_fr_energy">   -277.05155618 </i>
    <i name="e_wo_entrp">   -276.72053054 </i>
    <i name="e_0_energy">   -276.88604336 </i>
   </energy>
  </scstep>
  <scstep>
   <time name="dav">    0.58    0.58</time>
   <time name="total">    1.55    1.56</time>
   <dipole>
    <v name="dipole">      0.00000000       0.00000000       0.01239060 </v>
    <i name="Tr[quadrupol]">  -1804.01489668 </i>
    <i name="Echarged">      0.00000000 </i>
    <i name="Edipol_quadrupol">      0.00000000 </i>
    <i name="Eion">      0.00000000 </i>
   </dipole>
   <energy>
    <i name="e_fr_energy">   -277.23077727 </i>
    <i name="e_wo_entrp">   -276.88632798 </i>
    <i name="e_0_energy">   -277.05855263 </i>
   </energy>
  </scstep>
  <scstep>
   <time name="dav">    0.46    0.46</time>
   <time name="total">    1.43    1.44</time>
   <dipole>
    <v name="dipole">      0.00000000       0.00000000       0.01289076 </v>
    <i name="Tr[quadrupol]">  -1804.01948885 </i>
    <i name="Echarged">      0.00000000 </i>
    <i name="Edipol_quadrupol">      0.00000000 </i>
    <i name="Eion">      0.00000000 </i>
   </dipole>
   <energy>
    <i name="e_fr_energy">   -277.22631736 </i>
    <i name="e_wo_entrp">   -276.88301690 </i>
    <i name="e_0_energy">   -277.05466713 </i>
   </energy>
  </scstep>
  <scstep>
   <time name="dav">    0.50    0.50</time>
   <time name="total">    1.47    1.48</time>
   <dipole>
    <v name="dipole">      0.00000000       0.00000000       0.00372809 </v>
    <i name="Tr[quadrupol]">  -1804.01091603 </i>
    <i name="Echarged">      0.00000000 </i>
    <i name="Edipol_quadrupol">      0.00000000 </i>
    <i name="Eion">      0.00000000 </i>
   </dipole>
   <energy>
    <i name="e_fr_energy">   -277.34054332 </i>
    <i name="e_wo_entrp">   -276.97733951 </i>
    <i name="e_0_energy">   -277.15894141 </i>
   </energy>
  </scstep>
  <scstep>
   <time name="dav">    0.41    0.41</time>
   <time name="total">    1.39    1.39</time>
   <dipole>
    <v name="dipole">      0.00000000       0.00000000       0.02106823 </v>
    <i name="Tr[quadrupol]">  -1804.07334050 </i>
    <i name="Echarged">      0.00000000 </i>
    <i name="Edipol_quadrupol">      0.00000000 </i>
    <i name="Eion">      0.00000000 </i>
   </dipole>
   <energy>
    <i name="e_fr_energy">   -277.16009854 </i>
    <i name="e_wo_entrp">   -276.81487983 </i>
    <i name="e_0_energy">   -276.98748918 </i>
   </energy>
  </scstep>
  <scstep>
   <time name="dav">    0.43    0.43</time>
   <time name="total">    1.40    1.41</time>
   <dipole>
    <v name="dipole">      0.00000000       0.00000000       0.02616727 </v>
    <i name="Tr[quadrupol]">  -1804.08619264 </i>
    <i name="Echarged">      0.00000000 </i>
    <i name="Edipol_quadrupol">      0.00000000 </i>
    <i name="Eion">      0.00000000 </i>
   </dipole>
   <energy>
    <i name="e_fr_energy">   -277.06530631 </i>
    <i name="e_wo_entrp">   -276.72822887 </i>
    <i name="e_0_energy">   -276.89676759 </i>
   </energy>
  </scstep>
  <scstep>
   <time name="dav">    0.40    0.40</time>
   <time name="total">    1.36    1.38</time>
   <dipole>
    <v name="dipole">      0.00000000       0.00000000       0.02943982 </v>
    <i name="Tr[quadrupol]">  -1804.18085332 </i>
    <i name="Echarged">      0.00000000 </i>
    <i name="Edipol_quadrupol">      0.00000000 </i>
    <i name="Eion">      0.00000000 </i>
   </dipole>
   <energy>
    <i name="e_fr_energy">   -276.88859675 </i>
    <i name="e_wo_entrp">   -276.56002350 </i>
    <i name="e_0_energy">   -276.72431012 </i>
   </energy>
  </scstep>
  <scstep>
   <time name="dav">    0.52    0.52</time>
   <time name="total">    1.50    1.50</time>
   <dipole>
    <v name="dipole">      0.00000000       0.00000000       0.02252263 </v>
    <i name="Tr[quadrupol]">  -1804.30993825 </i>
    <i name="Echarged">      0.00000000 </i>
    <i name="Edipol_quadrupol">      0.00000000 </i>
    <i name="Eion">      0.00000000 </i>
   </dipole>
   <energy>
    <i name="e_fr_energy">   -276.91093371 </i>
    <i name="e_wo_entrp">   -276.58438645 </i>
    <i name="e_0_energy">   -276.74766008 </i>
   </energy>
  </scstep>
  <scstep>
   <time name="dav">    0.42    0.42</time>
   <time name="total">    1.39    1.40</time>
   <dipole>
    <v name="dipole">      0.00000000       0.00000000       0.03489270 </v>
    <i name="Tr[quadrupol]">  -1804.43230493 </i>
    <i name="Echarged">      0.00000000 </i>
    <i name="Edipol_quadrupol">      0.00000000 </i>
    <i name="Eion">      0.00000000 </i>
   </dipole>
   <energy>
    <i name="e_fr_energy">   -276.97203755 </i>
    <i name="e_wo_entrp">   -276.67578499 </i>
    <i name="e_0_energy">   -276.82391127 </i>
   </energy>
  </scstep>
  <scstep>
   <time name="dav">    0.41    0.41</time>
   <time name="total">    1.38    1.39</time>
   <dipole>
    <v name="dipole">      0.00000000       0.00000000       0.06206160 </v>
    <i name="Tr[quadrupol]">  -1804.68719014 </i>
    <i name="Echarged">      0.00000000 </i>
    <i name="Edipol_quadrupol">      0.00000000 </i>
    <i name="Eion">      0.00000000 </i>
   </dipole>
   <energy>
    <i name="e_fr_energy">   -276.82174222 </i>
    <i name="e_wo_entrp">   -276.55250647 </i>
    <i name="e_0_energy">   -276.68712435 </i>
   </energy>
  </scstep>
  <scstep>
   <time name="dav">    0.43    0.43</time>
   <time name="total">    1.41    1.41</time>
   <dipole>
    <v name="dipole">      0.00000000       0.00000000       0.05460188 </v>
    <i name="Tr[quadrupol]">  -1804.91328100 </i>
    <i name="Echarged">      0.00000000 </i>
    <i name="Edipol_quadrupol">      0.00000000 </i>
    <i name="Eion">      0.00000000 </i>
   </dipole>
   <energy>
    <i name="e_fr_energy">   -276.23137806 </i>
    <i name="e_wo_entrp">   -275.96371438 </i>
    <i name="e_0_energy">   -276.09754622 </i>
   </energy>
  </scstep>
  <scstep>
   <time name="dav">    0.51    0.51</time>
   <time name="total">    1.48    1.49</time>
   <dipole>
    <v name="dipole">      0.00000000       0.00000000       0.04687228 </v>
    <i name="Tr[quadrupol]">  -1805.04153614 </i>
    <i name="Echarged">      0.00000000 </i>
    <i name="Edipol_quadrupol">      0.00000000 </i>
    <i name="Eion">      0.00000000 </i>
   </dipole>
   <energy>
    <i name="e_fr_energy">   -275.88604914 </i>
    <i name="e_wo_entrp">   -275.60761994 </i>
    <i name="e_0_energy">   -275.74683454 </i>
   </energy>
  </scstep>
  <scstep>
   <time name="dav">    0.40    0.40</time>
   <time name="total">    1.37    1.38</time>
   <dipole>
    <v name="dipole">      0.00000000       0.00000000       0.04389563 </v>
    <i name="Tr[quadrupol]">  -1804.95138936 </i>
    <i name="Echarged">      0.00000000 </i>
    <i name="Edipol_quadrupol">      0.00000000 </i>
    <i name="Eion">      0.00000000 </i>
   </dipole>
   <energy>
    <i name="e_fr_energy">   -276.03164433 </i>
    <i name="e_wo_entrp">   -275.75167097 </i>
    <i name="e_0_energy">   -275.89165765 </i>
   </energy>
  </scstep>
  <scstep>
   <time name="dav">    0.54    0.54</time>
   <time name="total">    1.47    1.48</time>
   <dipole>
    <v name="dipole">      0.00000000       0.00000000       0.04206540 </v>
    <i name="Tr[quadrupol]">  -1804.93773715 </i>
    <i name="Echarged">      0.00000000 </i>
    <i name="Edipol_quadrupol">      0.00000000 </i>
    <i name="Eion">      0.00000000 </i>
   </dipole>
   <energy>
    <i name="alphaZ">    576.06859888 </i>
    <i name="ewald"> 142596.80559796 </i>
    <i name="hartreedc">-167280.14238790 </i>
    <i name="XCdc">   1192.05511360 </i>
    <i name="pawpsdc">  27340.82407586 </i>
    <i name="pawaedc"> -27787.07749746 </i>
    <i name="eentropy">     -0.28297888 </i>
    <i name="bandstr">  -3938.59343948 </i>
    <i name="atom">  27024.21734940 </i>
    <i name="e_fr_energy">   -276.12556802 </i>
    <i name="e_wo_entrp">   -275.84258914 </i>
    <i name="e_0_energy">   -275.98407858 </i>
   </energy>
  </scstep>
  <structure>
   <crystal>
    <varray name="basis" >
     <v>       5.53670000       0.00000000       0.00000000 </v>
     <v>       0.00000000       5.74730000       0.00000000 </v>
     <v>       0.00000000       0.00000000      29.09039264 </v>
    </varray>
    <i name="volume">    925.68759245 </i>
    <varray name="rec_basis" >
     <v>       0.18061300       0.00000000       0.00000000 </v>
     <v>       0.00000000       0.17399475       0.00000000 </v>
     <v>       0.00000000       0.00000000       0.03437561 </v>
    </varray>
   </crystal>
   <varray name="positions" >
    <v>       0.00000000       0.50000000       0.00343756 </v>
    <v>       0.50000000       0.00000000       0.00343756 </v>
    <v>       0.50000000       0.00000000       0.13566163 </v>
    <v>       0.00000000       0.50000000       0.13566163 </v>
    <v>       0.99994822       0.49959412       0.26890466 </v>
    <v>       0.50005178       0.99959412       0.26890466 </v>
    <v>       0.49333716       0.00206867       0.40028741 </v>
    <v>       0.00666284       0.50206867       0.40028741 </v>
    <v>       0.50780000       0.54900000       0.06954959 </v>
    <v>       0.99220000       0.04900000       0.06954959 </v>
    <v>       0.49220000       0.45100000       0.20177366 </v>
    <v>       0.00780000       0.95100000       0.20177366 </v>
    <v>       0.50834765       0.54616670       0.33517648 </v>
    <v>       0.99165235       0.04616670       0.33517648 </v>
    <v>       0.77440000       0.80660000       0.01359237 </v>
    <v>       0.72560000       0.30660000       0.01359237 </v>
    <v>       0.42550000       0.98740000       0.06954959 </v>
    <v>       0.07450000       0.48740000       0.06954959 </v>
    <v>       0.72560000       0.30660000       0.12550682 </v>
    <v>       0.77440000       0.80660000       0.12550682 </v>
    <v>       0.22560000       0.19340000       0.14581644 </v>
    <v>       0.27440000       0.69340000       0.14581644 </v>
    <v>       0.57450000       0.01260000       0.20177366 </v>
    <v>       0.92550000       0.51260000       0.20177366 </v>
    <v>       0.28333296       0.69537989       0.25589232 </v>
    <v>       0.21666704       0.19537989       0.25589232 </v>
    <v>       0.78815878       0.80698575       0.27825202 </v>
    <v>       0.71184122       0.30698575       0.27825202 </v>
    <v>       0.42872741       0.99694438       0.33332154 </v>
    <v>       0.07127259       0.49694438       0.33332154 </v>
    <v>       0.72242949       0.30331813       0.38825285 </v>
    <v>       0.77757051       0.80331813       0.38825285 </v>
    <v>       0.21915196       0.19248286       0.40833697 </v>
    <v>       0.28084804       0.69248286       0.40833697 </v>
   </varray>
  </structure>
  <varray name="forces" >
   <v>      -2.01402973       0.94664542       3.45844526 </v>
   <v>       2.01402973       0.94664542       3.45844526 </v>
   <v>      -0.07590553      -0.13730388       0.19495529 </v>
   <v>       0.07590553      -0.13730388       0.19495529 </v>
   <v>      -0.04993961      -0.06985305       0.51956561 </v>
   <v>       0.04993961      -0.06985305       0.51956561 </v>
   <v>      -1.64804705      -0.04420951      -1.17751575 </v>
   <v>       1.64804705      -0.04420951      -1.17751575 </v>
   <v>       1.27156031      -1.21212037       0.96975107 </v>
   <v>      -1.27156031      -1.21212037       0.96975107 </v>
   <v>      -0.49263528       0.67807041      -0.32452970 </v>
   <v>       0.49263528       0.67807041      -0.32452970 </v>
   <v>       1.25364924      -0.94532303       1.73773325 </v>
   <v>      -1.25364924      -0.94532303       1.73773325 </v>
   <v>       3.79440435      -0.42112539       1.30956349 </v>
   <v>      -3.79440435      -0.42112539       1.30956349 </v>
   <v>      -0.10386428       0.81835111      -2.56703667 </v>
   <v>       0.10386428       0.81835111      -2.56703667 </v>
   <v>      -4.13521967      -0.27290282      -6.02856680 </v>
   <v>       4.13521967      -0.27290282      -6.02856680 </v>
   <v>      -5.62484446      -0.74677478       0.28035300 </v>
   <v>       5.62484446      -0.74677478       0.28035300 </v>
   <v>      -0.40582575      -2.91862085      -3.47646751 </v>
   <v>       0.40582575      -2.91862085      -3.47646751 </v>
   <v>       2.65074059       0.54275130       5.14272602 </v>
   <v>      -2.65074059       0.54275130       5.14272602 </v>
   <v>      -1.05911222       0.45299208      -5.25157887 </v>
   <v>       1.05911222       0.45299208      -5.25157887 </v>
   <v>       0.19835069       3.64877185       0.19411311 </v>
   <v>      -0.19835069       3.64877185       0.19411311 </v>
   <v>      -2.64111136      -1.01419190       0.53542870 </v>
   <v>       2.64111136      -1.01419190       0.53542870 </v>
   <v>      -4.05387119       0.69484340       4.48306049 </v>
   <v>       4.05387119       0.69484340       4.48306049 </v>
  </varray>
  <varray name="stress" >
   <v>     221.58676299       0.00000000       0.00000000 </v>
   <v>       0.00000000     195.74549364       4.90185421 </v>
   <v>       0.00000000       4.90204240     -97.34777351 </v>
  </varray>
  <energy>
   <i name="e_fr_energy">   -276.12556802 </i>
   <i name="e_wo_entrp">   -275.84258914 </i>
   <i name="e_0_energy">   -275.98407858 </i>
  </energy>
  <time name="totalsc">   45.47   45.77</time>
 </calculation>
 <calculation>
  <scstep>
   <time name="dav">    0.41    0.41</time>
   <time name="total">    1.39    1.40</time>
   <dipole>
    <v name="dipole">      0.00000000       0.00000000       0.04178244 </v>
    <i name="Tr[quadrupol]">  -1804.94094117 </i>
    <i name="Echarged">      0.00000000 </i>
    <i name="Edipol_quadrupol">      0.00000000 </i>
    <i name="Eion">      0.00000000 </i>
   </dipole>
   <energy>
    <i name="alphaZ">    576.06338136 </i>
    <i name="ewald"> 142600.32398935 </i>
    <i name="hartreedc">-167283.57356016 </i>
    <i name="XCdc">   1192.04545608 </i>
    <i name="pawpsdc">  27339.71438821 </i>
    <i name="pawaedc"> -27785.96535897 </i>
    <i name="eentropy">     -0.28337423 </i>
    <i name="bandstr">  -3938.66987535 </i>
    <i name="atom">  27024.21734940 </i>
    <i name="e_fr_energy">   -276.12760432 </i>
    <i name="e_wo_entrp">   -275.84423009 </i>
    <i name="e_0_energy">   -275.98591720 </i>
   </energy>
  </scstep>
  <scstep>
   <time name="dav">    0.47    0.47</time>
   <time name="total">    1.45    1.45</time>
   <dipole>
    <v name="dipole">      0.00000000       0.00000000       2.76302471 </v>
    <i name="Tr[quadrupol]">  -1812.32629384 </i>
    <i name="Echarged">      0.00000000 </i>
    <i name="Edipol_quadrupol">      0.00000000 </i>
    <i name="Eion">      0.00000000 </i>
   </dipole>
   <energy>
    <i name="e_fr_energy">   -606.10265170 </i>
    <i name="e_wo_entrp">   -605.66507789 </i>
    <i name="e_0_energy">   -605.88386480 </i>
   </energy>
  </scstep>
  <scstep>
   <time name="dav">    0.50    0.50</time>
   <time name="total">    1.46    1.47</time>
   <dipole>
    <v name="dipole">      0.00000000       0.00000000       0.45868654 </v>
    <i name="Tr[quadrupol]">  -1807.70324970 </i>
    <i name="Echarged">      0.00000000 </i>
    <i name="Edipol_quadrupol">      0.00000000 </i>
    <i name="Eion">      0.00000000 </i>
   </dipole>
   <energy>
    <i name="e_fr_energy">   -288.22269584 </i>
    <i name="e_wo_entrp">   -288.07309046 </i>
    <i name="e_0_energy">   -288.14789315 </i>
   </energy>
  </scstep>
  <scstep>
   <time name="dav">    0.52    0.52</time>
   <time name="total">    1.49    1.50</time>
   <dipole>
    <v name="dipole">      0.00000000       0.00000000       0.08496024 </v>
    <i name="Tr[quadrupol]">  -1806.43640573 </i>
    <i name="Echarged">      0.00000000 </i>
    <i name="Edipol_quadrupol">      0.00000000 </i>
    <i name="Eion">      0.00000000 </i>
   </dipole>
   <energy>
    <i name="e_fr_energy">   -267.05020335 </i>
    <i name="e_wo_entrp">   -266.65471677 </i>
    <i name="e_0_energy">   -266.85246006 </i>
   </energy>
  </scstep>
  <scstep>
   <time name="dav">    0.51    0.52</time>
   <time name="total">    1.49    1.49</time>
   <dipole>
    <v name="dipole">      0.00000000       0.00000000      -0.01262190 </v>
    <i name="Tr[quadrupol]">  -1806.97905356 </i>
    <i name="Echarged">      0.00000000 </i>
    <i name="Edipol_quadrupol">      0.00000000 </i>
    <i name="Eion">      0.00000000 </i>
   </dipole>
   <energy>
    <i name="e_fr_energy">   -276.20539397 </i>
    <i name="e_wo_entrp">   -275.69217869 </i>
    <i name="e_0_energy">   -275.94878633 </i>
   </energy>
  </scstep>
  <scstep>
   <time name="dav">    0.50    0.51</time>
   <time name="total">    1.47    1.48</time>
   <dipole>
    <v name="dipole">      0.00000000       0.00000000       0.07302057 </v>
    <i name="Tr[quadrupol]">  -1805.50879656 </i>
    <i name="Echarged">      0.00000000 </i>
    <i name="Edipol_quadrupol">      0.00000000 </i>
    <i name="Eion">      0.00000000 </i>
   </dipole>
   <energy>
    <i name="e_fr_energy">   -277.06690050 </i>
    <i name="e_wo_entrp">   -276.55007147 </i>
    <i name="e_0_energy">   -276.80848598 </i>
   </energy>
  </scstep>
  <scstep>
   <time name="dav">    0.50    0.51</time>
   <time name="total">    1.47    1.48</time>
   <dipole>
    <v name="dipole">      0.00000000       0.00000000       0.06206806 </v>
    <i name="Tr[quadrupol]">  -1805.70905646 </i>
    <i name="Echarged">      0.00000000 </i>
    <i name="Edipol_quadrupol">      0.00000000 </i>
    <i name="Eion">      0.00000000 </i>
   </dipole>
   <energy>
    <i name="e_fr_energy">   -276.74702298 </i>
    <i name="e_wo_entrp">   -276.31196572 </i>
    <i name="e_0_energy">   -276.52949435 </i>
   </energy>
  </scstep>
  <scstep>
   <time name="dav">    0.57    0.57</time>
   <time name="total">    1.54    1.55</time>
   <dipole>
    <v name="dipole">      0.00000000       0.00000000       0.09516568 </v>
    <i name="Tr[quadrupol]">  -1805.53952955 </i>
    <i name="Echarged">      0.00000000 </i>
    <i name="Edipol_quadrupol">      0.00000000 </i>
    <i name="Eion">      0.00000000 </i>
   </dipole>
   <energy>
    <i name="e_fr_energy">   -276.86259991 </i>
    <i name="e_wo_entrp">   -276.44096099 </i>
    <i name="e_0_energy">   -276.65178045 </i>
   </energy>
  </scstep>
  <scstep>
   <time name="dav">    0.45    0.45</time>
   <time name="total">    1.42    1.43</time>
   <dipole>
    <v name="dipole">      0.00000000       0.00000000       0.10503346 </v>
    <i name="Tr[quadrupol]">  -1805.56933544 </i>
    <i name="Echarged">      0.00000000 </i>
    <i name="Edipol_quadrupol">      0.00000000 </i>
    <i name="Eion">      0.00000000 </i>
   </dipole>
   <energy>
    <i name="e_fr_energy">   -276.91545978 </i>
    <i name="e_wo_entrp">   -276.46740271 </i>
    <i name="e_0_energy">   -276.69143124 </i>
   </energy>
  </scstep>
  <scstep>
   <time name="dav">    0.53    0.53</time>
   <time name="total">    1.50    1.51</time>
   <dipole>
    <v name="dipole">      0.00000000       0.00000000       0.10924599 </v>
    <i name="Tr[quadrupol]">  -1805.46999943 </i>
    <i name="Echarged">      0.00000000 </i>
    <i name="Edipol_quadrupol">      0.00000000 </i>
[...]
        <r>  0.0000  0.0008  0.0000  0.0000 </r>
        <r>  0.0000  0.0008  0.0000  0.0000 </r>
        <r>  0.0000  0.0001  0.0000  0.0000 </r>
        <r>  0.0000  0.0001  0.0000  0.0000 </r>
        <r>  0.0000  0.0001  0.0000  0.0000 </r>
        <r>  0.0000  0.0001  0.0000  0.0000 </r>
       </set>
       <set comment="band 172">
        <r>  0.0001  0.0004  0.0108  0.0000 </r>
        <r>  0.0001  0.0004  0.0108  0.0000 </r>
        <r>  0.0007  0.0002  0.0093  0.0000 </r>
        <r>  0.0007  0.0002  0.0093  0.0000 </r>
        <r>  0.0030  0.0001  0.0538  0.0000 </r>
        <r>  0.0030  0.0001  0.0538  0.0000 </r>
        <r>  0.0001  0.0004  0.0022  0.0000 </r>
        <r>  0.0001  0.0004  0.0022  0.0000 </r>
        <r>  0.0001  0.0001  0.0105  0.3075 </r>
        <r>  0.0001  0.0001  0.0105  0.3074 </r>
        <r>  0.0001  0.0001  0.0019  0.0288 </r>
        <r>  0.0001  0.0001  0.0019  0.0288 </r>
        <r>  0.0004  0.0001  0.0014  0.0133 </r>
        <r>  0.0004  0.0001  0.0014  0.0133 </r>
        <r>  0.0001  0.0068  0.0000  0.0000 </r>
        <r>  0.0001  0.0068  0.0000  0.0000 </r>
        <r>  0.0006  0.0020  0.0000  0.0000 </r>
        <r>  0.0006  0.0020  0.0000  0.0000 </r>
        <r>  0.0006  0.0001  0.0000  0.0000 </r>
        <r>  0.0006  0.0001  0.0000  0.0000 </r>
        <r>  0.0000  0.0008  0.0000  0.0000 </r>
        <r>  0.0000  0.0008  0.0000  0.0000 </r>
        <r>  0.0000  0.0019  0.0000  0.0000 </r>
        <r>  0.0000  0.0019  0.0000  0.0000 </r>
        <r>  0.0011  0.0016  0.0000  0.0000 </r>
        <r>  0.0011  0.0016  0.0000  0.0000 </r>
        <r>  0.0012  0.0018  0.0000  0.0000 </r>
        <r>  0.0012  0.0018  0.0000  0.0000 </r>
        <r>  0.0000  0.0024  0.0000  0.0000 </r>
        <r>  0.0000  0.0024  0.0000  0.0000 </r>
        <r>  0.0000  0.0001  0.0000  0.0000 </r>
        <r>  0.0000  0.0001  0.0000  0.0000 </r>
        <r>  0.0000  0.0003  0.0000  0.0000 </r>
        <r>  0.0000  0.0003  0.0000  0.0000 </r>
       </set>
       <set comment="band 173">
        <r>  0.0001  0.0003  0.0139  0.0000 </r>
        <r>  0.0001  0.0003  0.0139  0.0000 </r>
        <r>  0.0008  0.0001  0.0125  0.0000 </r>
        <r>  0.0008  0.0001  0.0125  0.0000 </r>
        <r>  0.0009  0.0000  0.0147  0.0000 </r>
        <r>  0.0009  0.0000  0.0147  0.0000 </r>
        <r>  0.0000  0.0001  0.0006  0.0000 </r>
        <r>  0.0000  0.0001  0.0006  0.0000 </r>
        <r>  0.0002  0.0000  0.0083  0.3233 </r>
        <r>  0.0002  0.0000  0.0083  0.3233 </r>
        <r>  0.0000  0.0001  0.0104  0.0477 </r>
        <r>  0.0000  0.0001  0.0104  0.0477 </r>
        <r>  0.0002  0.0000  0.0029  0.0150 </r>
        <r>  0.0002  0.0000  0.0029  0.0150 </r>
        <r>  0.0001  0.0042  0.0000  0.0000 </r>
        <r>  0.0001  0.0042  0.0000  0.0000 </r>
        <r>  0.0000  0.0003  0.0000  0.0000 </r>
        <r>  0.0000  0.0003  0.0000  0.0000 </r>
        <r>  0.0003  0.0012  0.0000  0.0000 </r>
        <r>  0.0003  0.0012  0.0000  0.0000 </r>
        <r>  0.0005  0.0011  0.0000  0.0000 </r>
        <r>  0.0005  0.0011  0.0000  0.0000 </r>
        <r>  0.0002  0.0010  0.0000  0.0000 </r>
        <r>  0.0002  0.0010  0.0000  0.0000 </r>
        <r>  0.0002  0.0011  0.0000  0.0000 </r>
        <r>  0.0002  0.0011  0.0000  0.0000 </r>
        <r>  0.0002  0.0013  0.0000  0.0000 </r>
        <r>  0.0002  0.0013  0.0000  0.0000 </r>
        <r>  0.0001  0.0004  0.0000  0.0000 </r>
        <r>  0.0001  0.0004  0.0000  0.0000 </r>
        <r>  0.0000  0.0001  0.0000  0.0000 </r>
        <r>  0.0000  0.0001  0.0000  0.0000 </r>
        <r>  0.0000  0.0001  0.0000  0.0000 </r>
        <r>  0.0000  0.0001  0.0000  0.0000 </r>
       </set>
       <set comment="band 174">
        <r>  0.0007  0.0007  0.0113  0.0000 </r>
        <r>  0.0007  0.0007  0.0113  0.0000 </r>
        <r>  0.0001  0.0001  0.0047  0.0000 </r>
        <r>  0.0001  0.0001  0.0047  0.0000 </r>
        <r>  0.0000  0.0001  0.0032  0.0000 </r>
        <r>  0.0000  0.0001  0.0032  0.0000 </r>
        <r>  0.0000  0.0000  0.0001  0.0000 </r>
        <r>  0.0000  0.0000  0.0001  0.0000 </r>
        <r>  0.0001  0.0001  0.0107  0.3435 </r>
        <r>  0.0001  0.0001  0.0107  0.3435 </r>
        <r>  0.0000  0.0001  0.0079  0.0714 </r>
        <r>  0.0000  0.0001  0.0079  0.0714 </r>
        <r>  0.0000  0.0000  0.0015  0.0051 </r>
        <r>  0.0000  0.0000  0.0015  0.0051 </r>
        <r>  0.0001  0.0030  0.0000  0.0000 </r>
        <r>  0.0001  0.0030  0.0000  0.0000 </r>
        <r>  0.0005  0.0003  0.0000  0.0000 </r>
        <r>  0.0005  0.0003  0.0000  0.0000 </r>
        <r>  0.0006  0.0005  0.0000  0.0000 </r>
        <r>  0.0006  0.0005  0.0000  0.0000 </r>
        <r>  0.0006  0.0011  0.0000  0.0000 </r>
        <r>  0.0006  0.0011  0.0000  0.0000 </r>
        <r>  0.0001  0.0003  0.0000  0.0000 </r>
        <r>  0.0001  0.0003  0.0000  0.0000 </r>
        <r>  0.0000  0.0010  0.0000  0.0000 </r>
        <r>  0.0000  0.0010  0.0000  0.0000 </r>
        <r>  0.0000  0.0005  0.0000  0.0000 </r>
        <r>  0.0000  0.0005  0.0000  0.0000 </r>
        <r>  0.0000  0.0002  0.0000  0.0000 </r>
        <r>  0.0000  0.0002  0.0000  0.0000 </r>
        <r>  0.0000  0.0000  0.0000  0.0000 </r>
        <r>  0.0000  0.0000  0.0000  0.0000 </r>
        <r>  0.0000  0.0000  0.0000  0.0000 </r>
        <r>  0.0000  0.0000  0.0000  0.0000 </r>
       </set>
       <set comment="band 175">
        <r>  0.0000  0.0012  0.0044  0.0000 </r>
        <r>  0.0000  0.0012  0.0044  0.0000 </r>
        <r>  0.0017  0.0001  0.0257  0.0000 </r>
        <r>  0.0017  0.0001  0.0257  0.0000 </r>
        <r>  0.0028  0.0001  0.0439  0.0000 </r>
        <r>  0.0028  0.0001  0.0439  0.0000 </r>
        <r>  0.0000  0.0003  0.0017  0.0000 </r>
        <r>  0.0000  0.0003  0.0017  0.0000 </r>
        <r>  0.0000  0.0005  0.0088  0.2064 </r>
        <r>  0.0000  0.0005  0.0088  0.2064 </r>
        <r>  0.0000  0.0001  0.0046  0.0949 </r>
        <r>  0.0000  0.0001  0.0046  0.0949 </r>
        <r>  0.0006  0.0000  0.0041  0.0284 </r>
        <r>  0.0006  0.0000  0.0041  0.0284 </r>
        <r>  0.0001  0.0031  0.0000  0.0000 </r>
        <r>  0.0001  0.0031  0.0000  0.0000 </r>
        <r>  0.0000  0.0018  0.0000  0.0000 </r>
        <r>  0.0000  0.0018  0.0000  0.0000 </r>
        <r>  0.0004  0.0022  0.0000  0.0000 </r>
        <r>  0.0004  0.0022  0.0000  0.0000 </r>
        <r>  0.0005  0.0005  0.0000  0.0000 </r>
        <r>  0.0005  0.0005  0.0000  0.0000 </r>
        <r>  0.0000  0.0030  0.0000  0.0000 </r>
        <r>  0.0000  0.0030  0.0000  0.0000 </r>
        <r>  0.0005  0.0019  0.0000  0.0000 </r>
        <r>  0.0005  0.0019  0.0000  0.0000 </r>
        <r>  0.0010  0.0024  0.0000  0.0000 </r>
        <r>  0.0010  0.0024  0.0000  0.0000 </r>
        <r>  0.0002  0.0016  0.0000  0.0000 </r>
        <r>  0.0002  0.0016  0.0000  0.0000 </r>
        <r>  0.0000  0.0001  0.0000  0.0000 </r>
        <r>  0.0000  0.0001  0.0000  0.0000 </r>
        <r>  0.0000  0.0003  0.0000  0.0000 </r>
        <r>  0.0000  0.0003  0.0000  0.0000 </r>
       </set>
       <set comment="band 176">
        <r>  0.0001  0.0003  0.0005  0.0000 </r>
        <r>  0.0001  0.0003  0.0005  0.0000 </r>
        <r>  0.0003  0.0001  0.0186  0.0000 </r>
        <r>  0.0003  0.0001  0.0186  0.0000 </r>
        <r>  0.0008  0.0001  0.0100  0.0000 </r>
        <r>  0.0008  0.0001  0.0100  0.0000 </r>
        <r>  0.0000  0.0001  0.0000  0.0000 </r>
        <r>  0.0000  0.0001  0.0000  0.0000 </r>
        <r>  0.0000  0.0001  0.0022  0.0482 </r>
        <r>  0.0000  0.0001  0.0022  0.0482 </r>
        <r>  0.0011  0.0002  0.0075  0.3415 </r>
        <r>  0.0011  0.0002  0.0075  0.3415 </r>
        <r>  0.0001  0.0000  0.0024  0.0150 </r>
        <r>  0.0001  0.0000  0.0024  0.0150 </r>
        <r>  0.0000  0.0003  0.0000  0.0000 </r>
        <r>  0.0000  0.0003  0.0000  0.0000 </r>
        <r>  0.0000  0.0006  0.0000  0.0000 </r>
        <r>  0.0000  0.0006  0.0000  0.0000 </r>
        <r>  0.0001  0.0003  0.0000  0.0000 </r>
        <r>  0.0001  0.0003  0.0000  0.0000 </r>
        <r>  0.0000  0.0004  0.0000  0.0000 </r>
        <r>  0.0000  0.0004  0.0000  0.0000 </r>
        <r>  0.0009  0.0007  0.0000  0.0000 </r>
        <r>  0.0009  0.0007  0.0000  0.0000 </r>
        <r>  0.0003  0.0015  0.0000  0.0000 </r>
        <r>  0.0003  0.0015  0.0000  0.0000 </r>
        <r>  0.0002  0.0016  0.0000  0.0000 </r>
        <r>  0.0002  0.0016  0.0000  0.0000 </r>
        <r>  0.0001  0.0003  0.0000  0.0000 </r>
        <r>  0.0001  0.0003  0.0000  0.0000 </r>
        <r>  0.0000  0.0001  0.0000  0.0000 </r>
        <r>  0.0000  0.0001  0.0000  0.0000 </r>
        <r>  0.0000  0.0001  0.0000  0.0000 </r>
        <r>  0.0000  0.0001  0.0000  0.0000 </r>
       </set>
       <set comment="band 177">
        <r>  0.0002  0.0001  0.0073  0.0000 </r>
        <r>  0.0002  0.0001  0.0073  0.0000 </r>
        <r>  0.0011  0.0002  0.0120  0.0000 </r>
        <r>  0.0011  0.0002  0.0120  0.0000 </r>
        <r>  0.0001  0.0000  0.0014  0.0000 </r>
        <r>  0.0001  0.0000  0.0014  0.0000 </r>
        <r>  0.0000  0.0000  0.0001  0.0000 </r>
        <r>  0.0000  0.0000  0.0001  0.0000 </r>
        <r>  0.0001  0.0000  0.0081  0.4181 </r>
        <r>  0.0001  0.0000  0.0081  0.4181 </r>
        <r>  0.0000  0.0001  0.0006  0.0178 </r>
        <r>  0.0000  0.0001  0.0006  0.0178 </r>
        <r>  0.0000  0.0000  0.0000  0.0003 </r>
        <r>  0.0000  0.0000  0.0000  0.0003 </r>
        <r>  0.0001  0.0007  0.0000  0.0000 </r>
        <r>  0.0001  0.0007  0.0000  0.0000 </r>
        <r>  0.0003  0.0061  0.0000  0.0000 </r>
        <r>  0.0003  0.0061  0.0000  0.0000 </r>
        <r>  0.0001  0.0017  0.0000  0.0000 </r>
        <r>  0.0001  0.0017  0.0000  0.0000 </r>
        <r>  0.0004  0.0020  0.0000  0.0000 </r>
        <r>  0.0004  0.0020  0.0000  0.0000 </r>
        <r>  0.0000  0.0001  0.0000  0.0000 </r>
        <r>  0.0000  0.0001  0.0000  0.0000 </r>
        <r>  0.0000  0.0001  0.0000  0.0000 </r>
        <r>  0.0000  0.0001  0.0000  0.0000 </r>
        <r>  0.0000  0.0001  0.0000  0.0000 </r>
        <r>  0.0000  0.0001  0.0000  0.0000 </r>
        <r>  0.0000  0.0001  0.0000  0.0000 </r>
        <r>  0.0000  0.0001  0.0000  0.0000 </r>
        <r>  0.0000  0.0000  0.0000  0.0000 </r>
        <r>  0.0000  0.0000  0.0000  0.0000 </r>
        <r>  0.0000  0.0000  0.0000  0.0000 </r>
        <r>  0.0000  0.0000  0.0000  0.0000 </r>
       </set>
       <set comment="band 178">
        <r>  0.0008  0.0000  0.0027  0.0000 </r>
        <r>  0.0008  0.0000  0.0027  0.0000 </r>
        <r>  0.0000  0.0002  0.0030  0.0000 </r>
        <r>  0.0000  0.0002  0.0030  0.0000 </r>
        <r>  0.0000  0.0001  0.0036  0.0000 </r>
        <r>  0.0000  0.0001  0.0036  0.0000 </r>
        <r>  0.0000  0.0000  0.0002  0.0000 </r>
        <r>  0.0000  0.0000  0.0002  0.0000 </r>
        <r>  0.0001  0.0000  0.0058  0.2460 </r>
        <r>  0.0001  0.0000  0.0058  0.2460 </r>
        <r>  0.0001  0.0002  0.0100  0.1732 </r>
        <r>  0.0001  0.0002  0.0100  0.1733 </r>
        <r>  0.0000  0.0000  0.0031  0.0114 </r>
        <r>  0.0000  0.0000  0.0031  0.0114 </r>
        <r>  0.0000  0.0014  0.0000  0.0000 </r>
        <r>  0.0000  0.0014  0.0000  0.0000 </r>
        <r>  0.0001  0.0043  0.0000  0.0000 </r>
        <r>  0.0001  0.0043  0.0000  0.0000 </r>
        <r>  0.0002  0.0003  0.0000  0.0000 </r>
        <r>  0.0002  0.0003  0.0000  0.0000 </r>
        <r>  0.0000  0.0014  0.0000  0.0000 </r>
        <r>  0.0000  0.0014  0.0000  0.0000 </r>
        <r>  0.0001  0.0002  0.0000  0.0000 </r>
        <r>  0.0001  0.0002  0.0000  0.0000 </r>
        <r>  0.0000  0.0009  0.0000  0.0000 </r>
        <r>  0.0000  0.0009  0.0000  0.0000 </r>
        <r>  0.0002  0.0008  0.0000  0.0000 </r>
        <r>  0.0002  0.0008  0.0000  0.0000 </r>
        <r>  0.0000  0.0004  0.0000  0.0000 </r>
        <r>  0.0000  0.0004  0.0000  0.0000 </r>
        <r>  0.0000  0.0001  0.0000  0.0000 </r>
        <r>  0.0000  0.0001  0.0000  0.0000 </r>
        <r>  0.0000  0.0001  0.0000  0.0000 </r>
        <r>  0.0000  0.0001  0.0000  0.0000 </r>
       </set>
       <set comment="band 179">
        <r>  0.0000  0.0002  0.0094  0.0000 </r>
        <r>  0.0000  0.0002  0.0094  0.0000 </r>
        <r>  0.0006  0.0001  0.0083  0.0000 </r>
        <r>  0.0006  0.0001  0.0083  0.0000 </r>
        <r>  0.0000  0.0000  0.0022  0.0000 </r>
        <r>  0.0000  0.0000  0.0022  0.0000 </r>
        <r>  0.0000  0.0000  0.0003  0.0000 </r>
        <r>  0.0000  0.0000  0.0003  0.0000 </r>
        <r>  0.0001  0.0001  0.0043  0.3958 </r>
        <r>  0.0001  0.0001  0.0043  0.3958 </r>
        <r>  0.0003  0.0001  0.0015  0.0440 </r>
        <r>  0.0003  0.0001  0.0015  0.0440 </r>
        <r>  0.0000  0.0000  0.0001  0.0033 </r>
        <r>  0.0000  0.0000  0.0001  0.0033 </r>
        <r>  0.0001  0.0041  0.0000  0.0000 </r>
        <r>  0.0001  0.0041  0.0000  0.0000 </r>
        <r>  0.0001  0.0015  0.0000  0.0000 </r>
        <r>  0.0001  0.0015  0.0000  0.0000 </r>
        <r>  0.0004  0.0054  0.0000  0.0000 </r>
        <r>  0.0004  0.0054  0.0000  0.0000 </r>
        <r>  0.0000  0.0011  0.0000  0.0000 </r>
        <r>  0.0000  0.0011  0.0000  0.0000 </r>
        <r>  0.0001  0.0001  0.0000  0.0000 </r>
        <r>  0.0001  0.0001  0.0000  0.0000 </r>
        <r>  0.0000  0.0000  0.0000  0.0000 </r>
        <r>  0.0000  0.0000  0.0000  0.0000 </r>
        <r>  0.0000  0.0001  0.0000  0.0000 </r>
        <r>  0.0000  0.0001  0.0000  0.0000 </r>
        <r>  0.0000  0.0001  0.0000  0.0000 </r>
        <r>  0.0000  0.0001  0.0000  0.0000 </r>
        <r>  0.0000  0.0000  0.0000  0.0000 </r>
        <r>  0.0000  0.0000  0.0000  0.0000 </r>
        <r>  0.0000  0.0000  0.0000  0.0000 </r>
        <r>  0.0000  0.0000  0.0000  0.0000 </r>
       </set>
       <set comment="band 180">
        <r>  0.0000  0.0011  0.0073  0.0000 </r>
        <r>  0.0000  0.0011  0.0073  0.0000 </r>
        <r>  0.0000  0.0001  0.0208  0.0000 </r>
        <r>  0.0000  0.0001  0.0208  0.0000 </r>
        <r>  0.0000  0.0004  0.0080  0.0000 </r>
        <r>  0.0000  0.0004  0.0080  0.0000 </r>
        <r>  0.0000  0.0001  0.0003  0.0000 </r>
        <r>  0.0000  0.0001  0.0003  0.0000 </r>
        <r>  0.0005  0.0001  0.0215  0.2274 </r>
        <r>  0.0005  0.0001  0.0215  0.2275 </r>
        <r>  0.0000  0.0000  0.0051  0.1427 </r>
        <r>  0.0000  0.0000  0.0051  0.1425 </r>
        <r>  0.0000  0.0000  0.0016  0.0114 </r>
        <r>  0.0000  0.0000  0.0016  0.0114 </r>
        <r>  0.0002  0.0021  0.0000  0.0000 </r>
        <r>  0.0002  0.0021  0.0000  0.0000 </r>
        <r>  0.0011  0.0108  0.0000  0.0000 </r>
        <r>  0.0011  0.0108  0.0000  0.0000 </r>
        <r>  0.0004  0.0002  0.0000  0.0000 </r>
        <r>  0.0004  0.0002  0.0000  0.0000 </r>
        <r>  0.0003  0.0007  0.0000  0.0000 </r>
        <r>  0.0003  0.0007  0.0000  0.0000 </r>
        <r>  0.0010  0.0008  0.0000  0.0000 </r>
        <r>  0.0010  0.0008  0.0000  0.0000 </r>
        <r>  0.0000  0.0005  0.0000  0.0000 </r>
        <r>  0.0000  0.0005  0.0000  0.0000 </r>
        <r>  0.0003  0.0005  0.0000  0.0000 </r>
        <r>  0.0003  0.0005  0.0000  0.0000 </r>
        <r>  0.0000  0.0001  0.0000  0.0000 </r>
        <r>  0.0000  0.0001  0.0000  0.0000 </r>
        <r>  0.0000  0.0000  0.0000  0.0000 </r>
        <r>  0.0000  0.0000  0.0000  0.0000 </r>
        <r>  0.0000  0.0001  0.0000  0.0000 </r>
        <r>  0.0000  0.0001  0.0000  0.0000 </r>
       </set>
      </set>
     </set>
    </set>
   </array>
  </projected>
 </calculation>
 <structure name="finalpos" >
  <crystal>
   <varray name="basis" >
    <v>       5.53670000       0.00000000       0.00000000 </v>
    <v>       0.00000000       5.74730000       0.00000000 </v>
    <v>       0.00000000       0.00000000      29.09039264 </v>
   </varray>
   <i name="volume">    925.68759245 </i>
   <varray name="rec_basis" >
    <v>       0.18061300       0.00000000       0.00000000 </v>
    <v>       0.00000000       0.17399475       0.00000000 </v>
    <v>       0.00000000       0.00000000       0.03437561 </v>
   </varray>
  </crystal>
  <varray name="positions" >
   <v>       0.00000000       0.50000000       0.00343756 </v>
   <v>       0.50000000       0.00000000       0.00343756 </v>
   <v>       0.50000000       0.00000000       0.13566163 </v>
   <v>       0.00000000       0.50000000       0.13566163 </v>
   <v>       0.99986929       0.49938438       0.26937126 </v>
   <v>       0.50013071       0.99938438       0.26937126 </v>
   <v>       0.48939587       0.00315503       0.40006453 </v>
   <v>       0.01060413       0.50315503       0.40006453 </v>
   <v>       0.50780000       0.54900000       0.06954959 </v>
   <v>       0.99220000       0.04900000       0.06954959 </v>
   <v>       0.49220000       0.45100000       0.20177366 </v>
   <v>       0.00780000       0.95100000       0.20177366 </v>
   <v>       0.50957389       0.54416646       0.33581737 </v>
   <v>       0.99042611       0.04416646       0.33581737 </v>
   <v>       0.77440000       0.80660000       0.01359237 </v>
   <v>       0.72560000       0.30660000       0.01359237 </v>
   <v>       0.42550000       0.98740000       0.06954959 </v>
   <v>       0.07450000       0.48740000       0.06954959 </v>
   <v>       0.72560000       0.30660000       0.12550682 </v>
   <v>       0.77440000       0.80660000       0.12550682 </v>
   <v>       0.22560000       0.19340000       0.14581644 </v>
   <v>       0.27440000       0.69340000       0.14581644 </v>
   <v>       0.57450000       0.01260000       0.20177366 </v>
   <v>       0.92550000       0.51260000       0.20177366 </v>
   <v>       0.28870533       0.69634117       0.25614362 </v>
   <v>       0.21129467       0.19634117       0.25614362 </v>
   <v>       0.79204805       0.80781865       0.27752619 </v>
   <v>       0.70795195       0.30781865       0.27752619 </v>
   <v>       0.42984338       0.00357119       0.33324504 </v>
   <v>       0.07015662       0.50357119       0.33324504 </v>
   <v>       0.71908670       0.30128723       0.38774270 </v>
   <v>       0.78091330       0.80128723       0.38774270 </v>
   <v>       0.21339458       0.19228727       0.40834875 </v>
   <v>       0.28660542       0.69228727       0.40834875 </v>
  </varray>
  <varray name="selective"  type="logical" >
   <v type="logical" >  F  F  F </v>
   <v type="logical" >  F  F  F </v>
   <v type="logical" >  F  F  F </v>
   <v type="logical" >  F  F  F </v>
   <v type="logical" >  T  T  T </v>
   <v type="logical" >  T  T  T </v>
   <v type="logical" >  T  T  T </v>
   <v type="logical" >  T  T  T </v>
   <v type="logical" >  F  F  F </v>
   <v type="logical" >  F  F  F </v>
   <v type="logical" >  F  F  F </v>
   <v type="logical" >  F  F  F </v>
   <v type="logical" >  T  T  T </v>
   <v type="logical" >  T  T  T </v>
   <v type="logical" >  F  F  F </v>
   <v type="logical" >  F  F  F </v>
   <v type="logical" >  F  F  F </v>
   <v type="logical" >  F  F  F </v>
   <v type="logical" >  F  F  F </v>
   <v type="logical" >  F  F  F </v>
   <v type="logical" >  F  F  F </v>
   <v type="logical" >  F  F  F </v>
   <v type="logical" >  F  F  F </v>
   <v type="logical" >  F  F  F </v>
   <v type="logical" >  T  T  T </v>
   <v type="logical" >  T  T  T </v>
   <v type="logical" >  T  T  T </v>
   <v type="logical" >  T  T  T </v>
   <v type="logical" >  T  T  T </v>
   <v type="logical" >  T  T  T </v>
   <v type="logical" >  T  T  T </v>
   <v type="logical" >  T  T  T </v>
   <v type="logical" >  T  T  T </v>
   <v type="logical" >  T  T  T </v>
  </varray>
  <nose>
   <v>      -3.00000000       0.00000000       0.00010000       0.00010000 </v>
  </nose>
 </structure>
</modeling>
