unknown system                          
           1
     5.536700    0.000000    0.000000
     0.000000    5.747300    0.000000
     0.000000    0.000000   29.090393
   Cr   La   O 
     8     6    20
Direct configuration=     1
   0.00000000  0.50000000  0.00343756
   0.50000000  0.00000000  0.00343756
   0.50000000  0.00000000  0.13566163
   0.00000000  0.50000000  0.13566163
   0.00000000  0.50000000  0.26788569
   0.50000000  0.00000000  0.26788569
   0.50000000  0.00000000  0.40010976
   0.00000000  0.50000000  0.40010976
   0.50780000  0.54900000  0.06954959
   0.99220000  0.04900000  0.06954959
   0.49220000  0.45100000  0.20177366
   0.00780000  0.95100000  0.20177366
   0.50780000  0.54900000  0.33399773
   0.99220000  0.04900000  0.33399773
   0.77440000  0.80660000  0.01359237
   0.72560000  0.30660000  0.01359237
   0.42550000  0.98740000  0.06954959
   0.07450000  0.48740000  0.06954959
   0.72560000  0.30660000  0.12550682
   0.77440000  0.80660000  0.12550682
   0.22560000  0.19340000  0.14581644
   0.27440000  0.69340000  0.14581644
   0.57450000  0.01260000  0.20177366
   0.92550000  0.51260000  0.20177366
   0.27440000  0.69340000  0.25773088
   0.22560000  0.19340000  0.25773088
   0.77440000  0.80660000  0.27804050
   0.72560000  0.30660000  0.27804050
   0.42550000  0.98740000  0.33399773
   0.07450000  0.48740000  0.33399773
   0.72560000  0.30660000  0.38995495
   0.77440000  0.80660000  0.38995495
   0.22560000  0.19340000  0.41026457
   0.27440000  0.69340000  0.41026457
Direct configuration=     2
   0.00000000  0.50000000  0.00343756
   0.50000000  0.00000000  0.00343756
   0.50000000  0.00000000  0.13566163
   0.00000000  0.50000000  0.13566163
   0.99994822  0.49959412  0.26890466
   0.50005178  0.99959412  0.26890466
   0.49333716  0.00206867  0.40028741
   0.00666284  0.50206867  0.40028741
   0.50780000  0.54900000  0.06954959
   0.99220000  0.04900000  0.06954959
   0.49220000  0.45100000  0.20177366
   0.00780000  0.95100000  0.20177366
   0.50834765  0.54616670  0.33517648
   0.99165235  0.04616670  0.33517648
   0.77440000  0.80660000  0.01359237
   0.72560000  0.30660000  0.01359237
   0.42550000  0.98740000  0.06954959
   0.07450000  0.48740000  0.06954959
   0.72560000  0.30660000  0.12550682
   0.77440000  0.80660000  0.12550682
   0.22560000  0.19340000  0.14581644
   0.27440000  0.69340000  0.14581644
   0.57450000  0.01260000  0.20177366
   0.92550000  0.51260000  0.20177366
   0.28333296  0.69537989  0.25589232
   0.21666704  0.19537989  0.25589232
   0.78815878  0.80698575  0.27825202
   0.71184122  0.30698575  0.27825202
   0.42872741  0.99694438  0.33332154
   0.07127259  0.49694438  0.33332154
   0.72242949  0.30331813  0.38825285
   0.77757051  0.80331813  0.38825285
   0.21915196  0.19248286  0.40833697
   0.28084804  0.69248286  0.40833697
Direct configuration=     3
   0.00000000  0.50000000  0.00343756
   0.50000000  0.00000000  0.00343756
   0.50000000  0.00000000  0.13566163
   0.00000000  0.50000000  0.13566163
   0.99994743  0.49958795  0.26892013
   0.50005257  0.99958795  0.26892013
   0.49323596  0.00210009  0.40029011
   0.00676404  0.50210009  0.40029011
   0.50780000  0.54900000  0.06954959
   0.99220000  0.04900000  0.06954959
   0.49220000  0.45100000  0.20177366
   0.00780000  0.95100000  0.20177366
   0.50835597  0.54612367  0.33519438
   0.99164403  0.04612367  0.33519438
   0.77440000  0.80660000  0.01359237
   0.72560000  0.30660000  0.01359237
   0.42550000  0.98740000  0.06954959
   0.07450000  0.48740000  0.06954959
   0.72560000  0.30660000  0.12550682
   0.77440000  0.80660000  0.12550682
   0.22560000  0.19340000  0.14581644
   0.27440000  0.69340000  0.14581644
   0.57450000  0.01260000  0.20177366
   0.92550000  0.51260000  0.20177366
   0.28346864  0.69540996  0.25586440
   0.21653136  0.19540996  0.25586440
   0.78836776  0.80699161  0.27825523
   0.71163224  0.30699161  0.27825523
   0.42877643  0.99708935  0.33331127
   0.07122357  0.49708935  0.33331127
   0.72238133  0.30326829  0.38822699
   0.77761867  0.80326829  0.38822699
   0.21905402  0.19246893  0.40830769
   0.28094598  0.69246893  0.40830769
Direct configuration=     4
   0.00000000  0.50000000  0.00343756
   0.50000000  0.00000000  0.00343756
   0.50000000  0.00000000  0.13566163
   0.00000000  0.50000000  0.13566163
   0.99983313  0.49929019  0.26957999
   0.50016687  0.99929019  0.26957999
   0.48761908  0.00364315  0.39996015
   0.01238092  0.50364315  0.39996015
   0.50780000  0.54900000  0.06954959
   0.99220000  0.04900000  0.06954959
   0.49220000  0.45100000  0.20177366
   0.00780000  0.95100000  0.20177366
   0.51013741  0.54326087  0.33610562
   0.98986259  0.04326087  0.33610562
   0.77440000  0.80660000  0.01359237
   0.72560000  0.30660000  0.01359237
   0.42550000  0.98740000  0.06954959
   0.07450000  0.48740000  0.06954959
   0.72560000  0.30660000  0.12550682
   0.77440000  0.80660000  0.12550682
   0.22560000  0.19340000  0.14581644
   0.27440000  0.69340000  0.14581644
   0.57450000  0.01260000  0.20177366
   0.92550000  0.51260000  0.20177366
   0.29112831  0.69677203  0.25627281
   0.20887169  0.19677203  0.25627281
   0.79375089  0.80820132  0.27718887
   0.70624911  0.30820132  0.27718887
   0.43033705  0.00657030  0.33321440
   0.06966295  0.50657030  0.33321440
   0.71756230  0.30037061  0.38751862
   0.78243770  0.80037061  0.38751862
   0.21077599  0.19220321  0.40836774
   0.28922401  0.69220321  0.40836774
Direct configuration=     5
   0.00000000  0.50000000  0.00343756
   0.50000000  0.00000000  0.00343756
   0.50000000  0.00000000  0.13566163
   0.00000000  0.50000000  0.13566163
   0.99986929  0.49938438  0.26937126
   0.50013071  0.99938438  0.26937126
   0.48939587  0.00315503  0.40006453
   0.01060413  0.50315503  0.40006453
   0.50780000  0.54900000  0.06954959
   0.99220000  0.04900000  0.06954959
   0.49220000  0.45100000  0.20177366
   0.00780000  0.95100000  0.20177366
   0.50957389  0.54416646  0.33581737
   0.99042611  0.04416646  0.33581737
   0.77440000  0.80660000  0.01359237
   0.72560000  0.30660000  0.01359237
   0.42550000  0.98740000  0.06954959
   0.07450000  0.48740000  0.06954959
   0.72560000  0.30660000  0.12550682
   0.77440000  0.80660000  0.12550682
   0.22560000  0.19340000  0.14581644
   0.27440000  0.69340000  0.14581644
   0.57450000  0.01260000  0.20177366
   0.92550000  0.51260000  0.20177366
   0.28870533  0.69634117  0.25614362
   0.21129467  0.19634117  0.25614362
   0.79204805  0.80781865  0.27752619
   0.70795195  0.30781865  0.27752619
   0.42984338  0.00357119  0.33324504
   0.07015662  0.50357119  0.33324504
   0.71908670  0.30128723  0.38774270
   0.78091330  0.80128723  0.38774270
   0.21339458  0.19228727  0.40834875
   0.28660542  0.69228727  0.40834875
